  0.1425000      -12345.00      -12345.00      0.1000000E+10  -12345.00    
  -30.00000      -12345.00       0.000000      -12345.00      -12345.00    
  -12345.00      -12345.00      -12345.00      -12345.00      -12345.00    
  -12345.00      -12345.00      -12345.00      -12345.00      -12345.00    
  -12345.00      -12345.00      -12345.00      -12345.00      -12345.00    
  -12345.00      -12345.00      -12345.00      -12345.00      -12345.00    
  -12345.00      -11.98750      -76.84220       575.0000       0.000000    
  -13.82000      -67.25000      -12345.00       647.1000      -12345.00    
   20.00000       34.00000       500.0000      -12345.00      -12345.00    
  -12345.00      -12345.00      -12345.00      -12345.00      -12345.00    
  -12345.00      -12345.00      -12345.00      -12345.00      -12345.00    
  -12345.00      -12345.00       0.000000       0.000000      -12345.00    
  -12345.00      -12345.00      -12345.00      -12345.00      -12345.00    
  -12345.00      -12345.00      -12345.00      -12345.00      -12345.00    
      1994       160         0        33        45
       399         6    -12345    -12345     25600
    -12345    -12345    -12345    -12345    -12345
         1         6        11    -12345    -12345
    -12345    -12345        40    -12345    -12345
    -12345    -12345    -12345    -12345    -12345
    -12345    -12345    -12345    -12345    -12345
         1         1         1         1    -12345
NNA     060994A         
S3      -12345  -12345  
-12345  -12345  -12345  
-12345  -12345  -12345  
-12345  -12345  -12345  
-12345  -12345  SY      
SEM7.0.0Horse   MXZ     
II      -12345  -12345  
   0.000000       0.000000       0.000000       0.000000       0.000000    
   0.000000       0.000000       0.000000       0.000000       0.000000    
   0.000000       0.000000       0.000000       0.000000       0.000000    
   0.000000       0.000000       0.000000       0.000000       0.000000    
   0.000000       0.000000       0.000000       0.000000       0.000000    
   0.000000       0.000000       0.000000       0.000000       0.000000    
   0.000000       0.000000       0.000000       0.000000       0.000000    
   0.000000       0.000000       0.000000       0.000000       0.000000    
   0.000000       0.000000       0.000000       0.000000       0.000000    
   0.000000       0.000000       0.000000       0.000000       0.000000    
   0.000000       0.000000       0.000000       0.000000       0.000000    
   0.000000       0.000000       0.000000       0.000000       0.000000    
   0.000000       0.000000       0.000000       0.000000       0.000000    
   0.000000       0.000000       0.000000       0.000000     -0.2508408E-33
 -0.8561297E-33 -0.1889425E-32 -0.3164511E-32 -0.6542223E-32 -0.1044278E-31
 -0.1109815E-31  0.2060291E-32  0.2669963E-31  0.5155765E-31  0.6773700E-31
  0.5267652E-31 -0.2798750E-33 -0.9051261E-31 -0.1871909E-30 -0.2576952E-30
 -0.2979134E-30 -0.2936146E-30 -0.2171553E-30  0.3093769E-31  0.4871291E-30
  0.1182936E-29  0.1650080E-29  0.2210397E-29  0.2350773E-29  0.7643742E-30
 -0.2019114E-29 -0.6056460E-29 -0.1040445E-28 -0.1931128E-28 -0.2897535E-28
 -0.3951745E-28 -0.5037023E-28 -0.5661573E-28 -0.5904024E-28 -0.5043750E-28
 -0.2973959E-28  0.4644904E-29  0.5194406E-28  0.1133365E-27  0.1856985E-27
  0.2625524E-27  0.3352271E-27  0.3915766E-27  0.4168322E-27  0.3954895E-27
  0.3123655E-27  0.1576786E-27 -0.7677155E-28 -0.3883733E-27 -0.7658457E-27
 -0.1183398E-26 -0.1603996E-26 -0.1978368E-26 -0.2246517E-26 -0.2340923E-26
 -0.2199131E-26 -0.1764860E-26 -0.9991466E-27  0.1098199E-27  0.1537378E-26
  0.3213741E-26  0.5020735E-26  0.6793243E-26  0.8326115E-26  0.9387541E-26
  0.9739721E-26  0.9165786E-26  0.7501434E-26  0.4668512E-26  0.7076624E-27
 -0.4195129E-26 -0.9691826E-26 -0.1527066E-25 -0.2027384E-25 -0.2393788E-25
 -0.2545894E-25 -0.2408285E-25 -0.1921803E-25 -0.1056499E-25  0.1747057E-26
  0.1702893E-25  0.3392324E-25  0.5033972E-25  0.6345786E-25  0.6982000E-25
  0.6553929E-25  0.4664128E-25  0.9552686E-26 -0.4826231E-25 -0.1275316E-24
 -0.2263076E-24 -0.3390674E-24 -0.4558741E-24 -0.5617374E-24 -0.6363260E-24
 -0.6542323E-24 -0.5859948E-24 -0.4000735E-24 -0.6596888E-25  0.4414258E-24
  0.1136243E-23  0.2014964E-23  0.3049046E-23  0.4177405E-23  0.5299671E-23
  0.6271345E-23  0.6902243E-23  0.6959866E-23  0.6179286E-23  0.4281082E-23
  0.9986097E-24 -0.3884891E-23 -0.1048964E-22 -0.1878473E-22 -0.2852865E-22
 -0.3920983E-22 -0.4999395E-22 -0.5968654E-22 -0.6672102E-22 -0.6918315E-22
 -0.6488332E-22 -0.5148698E-22 -0.2671046E-22  0.1141347E-22  0.6420350E-22
  0.1319408E-21  0.2134435E-21  0.3056351E-21  0.4031475E-21  0.4980130E-21
  0.5795051E-21  0.6341977E-21  0.6463104E-21  0.5984065E-21  0.4724935E-21
  0.2515593E-21 -0.7845903E-22 -0.5263110E-21 -0.1092767E-20 -0.1767799E-20
 -0.2527808E-20 -0.3333182E-20 -0.4126482E-20 -0.4831650E-20 -0.5354599E-20
 -0.5585583E-20 -0.5403683E-20 -0.4683670E-20 -0.3305384E-20 -0.1165595E-20
  0.1807918E-20  0.5640570E-20  0.1029427E-19  0.1565094E-19  0.2149758E-19
  0.2751468E-19  0.3326971E-19  0.3821776E-19  0.4171125E-19  0.4302050E-19
  0.4136663E-19  0.3596756E-19  0.2609722E-19  0.1115714E-19 -0.9241737E-20
 -0.3519043E-19 -0.6639119E-19 -0.1020708E-18 -0.1409055E-18 -0.1809660E-18
 -0.2196914E-18 -0.2539026E-18 -0.2798623E-18 -0.2933911E-18 -0.2900455E-18
 -0.2653592E-18 -0.2151486E-18 -0.1358771E-18 -0.2506630E-19  0.1182614E-18
  0.2931307E-18  0.4961817E-18  0.7212907E-18  0.9592829E-18  0.1197777E-17
  0.1421202E-17  0.1611030E-17  0.1746253E-17  0.1804138E-17  0.1761268E-17
  0.1594875E-17  0.1284443E-17  0.8135382E-18  0.1718120E-18 -0.6429204E-18
 -0.1622631E-17 -0.2747198E-17 -0.3982837E-17 -0.5281020E-17 -0.6578050E-17
 -0.7795446E-17 -0.8841321E-17 -0.9612844E-17 -0.9999906E-17 -0.9890011E-17
 -0.9174354E-17 -0.7755004E-17 -0.5552980E-17 -0.2516948E-17  0.1367832E-17
  0.6070783E-17  0.1150805E-16  0.1753587E-16  0.2394605E-16  0.3046401E-16
  0.3675022E-16  0.4240556E-16  0.4698097E-16  0.4999191E-16  0.5093763E-16
  0.4932509E-16  0.4469737E-16  0.3666558E-16  0.2494347E-16  0.9383266E-17
 -0.9988883E-17 -0.3293984E-16 -0.5900103E-16 -0.8744682E-16 -0.1172824E-15
 -0.1472431E-15 -0.1758082E-15 -0.2012294E-15 -0.2215780E-15 -0.2348081E-15
 -0.2388394E-15 -0.2316554E-15 -0.2114173E-15 -0.1765892E-15 -0.1260714E-15
 -0.5933523E-16  0.2344553E-16  0.1212751E-15  0.2322349E-15  0.3534102E-15
  0.4808528E-15  0.6095870E-15  0.7336663E-15  0.8462872E-15  0.9399629E-15
  0.1006760E-14  0.1038597E-14  0.1027601E-14  0.9665111E-15  0.8491290E-15
  0.6707868E-15  0.4288269E-15  0.1230659E-15 -0.2437780E-15 -0.6657213E-15
 -0.1133242E-14 -0.1633121E-14 -0.2148432E-14 -0.2658686E-14 -0.3140176E-14
 -0.3566503E-14 -0.3909319E-14 -0.4139272E-14 -0.4227137E-14 -0.4145130E-14
 -0.3868351E-14 -0.3376334E-14 -0.2654641E-14 -0.1696431E-14 -0.5039561E-15
  0.9101244E-15  0.2521665E-14  0.4294289E-14  0.6179055E-14  0.8114597E-14
  0.1002782E-13  0.1183520E-13  0.1344468E-13  0.1475824E-13  0.1567506E-13
  0.1609528E-13  0.1592423E-13  0.1507712E-13  0.1348392E-13  0.1109436E-13
  0.7882890E-14  0.3853226E-14 -0.9575246E-15 -0.6475580E-14 -0.1258819E-13
 -0.1914256E-13 -0.2594626E-13 -0.3276918E-13 -0.3934735E-13 -0.4538846E-13
 -0.5057937E-13 -0.5459539E-13 -0.5711119E-13 -0.5781329E-13 -0.5641370E-13
 -0.5266435E-13 -0.4637201E-13 -0.3741290E-13 -0.2574675E-13 -0.1142942E-13
  0.5376430E-14  0.2439330E-13  0.4522409E-13  0.6735111E-13  0.9013948E-13
  0.1128453E-12  0.1346288E-12  0.1545726E-12  0.1717052E-12  0.1850291E-12
  0.1935538E-12  0.1963319E-12  0.1924987E-12  0.1813132E-12  0.1621999E-12
  0.1347896E-12  0.9895807E-13  0.5486045E-13  0.2959901E-14 -0.5595094E-13
 -0.1207374E-12 -0.1899210E-12 -0.2616885E-12 -0.3339147E-12 -0.4041974E-12
 -0.4699064E-12 -0.5282459E-12 -0.5763296E-12 -0.6112667E-12 -0.6302588E-12
 -0.6307038E-12 -0.6103052E-12 -0.5671833E-12 -0.4999849E-12 -0.4079880E-12
 -0.2911968E-12 -0.1504239E-12  0.1264540E-13  0.1954099E-12  0.3943342E-12
  0.6049585E-12  0.8219390E-12  0.1039122E-11  0.1249648E-11  0.1446097E-11
  0.1620653E-11  0.1765315E-11  0.1872124E-11  0.1933413E-11  0.1942081E-11
  0.1891868E-11  0.1777639E-11  0.1595663E-11  0.1343868E-11  0.1022083E-11
  0.6322391E-12  0.1785283E-12 -0.3324879E-12 -0.8918323E-12 -0.1488134E-11
 -0.2107720E-11 -0.2734790E-11 -0.3351668E-11 -0.3939131E-11 -0.4476816E-11
 -0.4943709E-11 -0.5318680E-11 -0.5581093E-11 -0.5711447E-11 -0.5692046E-11
 -0.5507686E-11 -0.5146329E-11 -0.4599752E-11 -0.3864152E-11 -0.2940672E-11
 -0.1835849E-11 -0.5619396E-12  0.8628751E-12  0.2414435E-11  0.4062708E-11
  0.5772066E-11  0.7501745E-11  0.9206477E-11  0.1083731E-10  0.1234261E-10
  0.1366918E-10  0.1476360E-10  0.1557359E-10  0.1604956E-10  0.1614614E-10
  0.1582379E-10  0.1505036E-10  0.1380260E-10  0.1206755E-10  0.9843824E-11
  0.7142633E-11  0.3988625E-11  0.4204083E-12 -0.3509219E-11 -0.7733395E-11
 -0.1217169E-10 -0.1673100E-10 -0.2130680E-10 -0.2578486E-10 -0.3004326E-10
 -0.3395483E-10 -0.3738987E-10 -0.4021923E-10 -0.4231749E-10 -0.4356645E-10
 -0.4385861E-10 -0.4310073E-10 -0.4121724E-10 -0.3815361E-10 -0.3387932E-10
 -0.2839061E-10 -0.2171272E-10 -0.1390160E-10 -0.5045065E-11  0.4736772E-11
  0.1529180E-10  0.2643697E-10  0.3796018E-10  0.4962299E-10  0.6116422E-10
  0.7230418E-10  0.8274985E-10  0.9220062E-10  0.1003547E-09  0.1069159E-09
  0.1116010E-09  0.1141471E-09  0.1143192E-09  0.1119177E-09  0.1067855E-09
  0.9881464E-10  0.8795253E-10  0.7420710E-10  0.5765113E-10  0.3842532E-10
  0.1674011E-10 -0.7123913E-11 -0.3281710E-10 -0.5992350E-10 -0.8796516E-10
 -0.1164082E-09 -0.1446703E-09 -0.1721301E-09 -0.1981377E-09 -0.2220263E-09
 -0.2431259E-09 -0.2607770E-09 -0.2743449E-09 -0.2832354E-09 -0.2869098E-09
 -0.2848997E-09 -0.2768217E-09 -0.2623911E-09 -0.2414340E-09 -0.2138985E-09
 -0.1798638E-09 -0.1395468E-09 -0.9330667E-10 -0.4164712E-10  0.1478481E-10
  0.7520251E-10  0.1386867E-09  0.2041955E-09  0.2705769E-09  0.3365854E-09
  0.4009001E-09  0.4621462E-09  0.5189184E-09  0.5698061E-09  0.6134208E-09
  0.6484235E-09  0.6735541E-09  0.6876593E-09  0.6897212E-09  0.6788848E-09
  0.6544830E-09  0.6160607E-09  0.5633951E-09  0.4965134E-09  0.4157071E-09
  0.3215411E-09  0.2148598E-09  0.9678696E-10 -0.3127843E-10 -0.1676720E-09
 -0.3104788E-09 -0.4575536E-09 -0.6065459E-09 -0.7549298E-09 -0.9000392E-09
 -0.1039106E-08 -0.1169303E-08 -0.1287789E-08 -0.1391758E-08 -0.1478489E-08
 -0.1545393E-08 -0.1590070E-08 -0.1610357E-08 -0.1604376E-08 -0.1570581E-08
 -0.1507804E-08 -0.1415289E-08 -0.1292734E-08 -0.1140315E-08 -0.9587080E-09
 -0.7491108E-09 -0.5132455E-09 -0.2533619E-09  0.2777065E-10  0.3268796E-09
  0.6402137E-09  0.9635766E-09  0.1292368E-08  0.1621635E-08  0.1946129E-08
  0.2260371E-08  0.2558726E-08  0.2835480E-08  0.3084921E-08  0.3301431E-08
  0.3479573E-08  0.3614188E-08  0.3700482E-08  0.3734128E-08  0.3711351E-08
  0.3629015E-08  0.3484714E-08  0.3276840E-08  0.3004659E-08  0.2668368E-08
  0.2269148E-08  0.1809203E-08  0.1291784E-08  0.7212030E-09  0.1028310E-09
 -0.5569203E-09 -0.1250633E-08 -0.1969932E-08 -0.2705556E-08 -0.3447439E-08
 -0.4184812E-08 -0.4906320E-08 -0.5600157E-08 -0.6254211E-08 -0.6856228E-08
 -0.7393981E-08 -0.7855455E-08 -0.8229037E-08 -0.8503710E-08 -0.8669253E-08
 -0.8716440E-08 -0.8637238E-08 -0.8424996E-08 -0.8074629E-08 -0.7582786E-08
 -0.6948005E-08 -0.6170849E-08 -0.5254015E-08 -0.4202430E-08 -0.3023303E-08
 -0.1726162E-08 -0.3228512E-09  0.1172511E-08  0.2743603E-08  0.4372012E-08
  0.6037385E-08  0.7717616E-08  0.9389067E-08  0.1102684E-07  0.1260504E-07
  0.1409717E-07  0.1547639E-07  0.1671599E-07  0.1778974E-07  0.1867233E-07
  0.1933976E-07  0.1976983E-07  0.1994251E-07  0.1984039E-07  0.1944909E-07
  0.1875763E-07  0.1775877E-07  0.1644934E-07  0.1483049E-07  0.1290794E-07
  0.1069210E-07  0.8198216E-08  0.5446375E-08  0.2461470E-08 -0.7269024E-09
 -0.4084632E-08 -0.7573354E-08 -0.1115080E-07 -0.1477120E-07 -0.1838577E-07
 -0.2194329E-07 -0.2539067E-07 -0.2867369E-07 -0.3173770E-07 -0.3452839E-07
 -0.3699257E-07 -0.3907903E-07 -0.4073934E-07 -0.4192870E-07 -0.4260673E-07
 -0.4273827E-07 -0.4229415E-07 -0.4125186E-07 -0.3959615E-07 -0.3731964E-07
 -0.3442327E-07 -0.3091661E-07 -0.2681817E-07 -0.2215550E-07 -0.1696523E-07
 -0.1129295E-07 -0.5192931E-08  0.1272229E-08  0.8032128E-08  0.1500921E-07
  0.2211956E-07  0.2927379E-07  0.3637804E-07  0.4333511E-07  0.5004564E-07
  0.5640941E-07  0.6232668E-07  0.6769958E-07  0.7243349E-07  0.7643853E-07
  0.7963089E-07  0.8193424E-07  0.8328107E-07  0.8361388E-07  0.8288638E-07
  0.8106453E-07  0.7812744E-07  0.7406814E-07  0.6889417E-07  0.6262801E-07
  0.5530729E-07  0.4698484E-07  0.3772855E-07  0.2762095E-07  0.1675865E-07
  0.5251550E-08 -0.6778177E-08 -0.1919728E-07 -0.3186279E-07 -0.4462359E-07
 -0.5732214E-07 -0.6979628E-07 -0.8188121E-07 -0.9341154E-07 -0.1042235E-06
 -0.1141569E-06 -0.1230576E-06 -0.1307794E-06 -0.1371865E-06 -0.1421552E-06
 -0.1455759E-06 -0.1473553E-06 -0.1474176E-06 -0.1457061E-06 -0.1421846E-06
 -0.1368385E-06 -0.1296752E-06 -0.1207253E-06 -0.1100419E-06 -0.9770137E-07
 -0.8380268E-07 -0.6846673E-07 -0.5183549E-07 -0.3407074E-07 -0.1535261E-07
  0.4122305E-08  0.2414292E-07  0.4448594E-07  0.6491835E-07  0.8520006E-07
  0.1050867E-06  0.1243325E-06  0.1426933E-06  0.1599298E-06  0.1758102E-06
  0.1901137E-06  0.2026330E-06  0.2131776E-06  0.2215759E-06  0.2276783E-06
  0.2313590E-06  0.2325183E-06  0.2310842E-06  0.2270138E-06  0.2202945E-06
  0.2109447E-06  0.1990141E-06  0.1845837E-06  0.1677653E-06  0.1487007E-06
  0.1275606E-06  0.1045430E-06  0.7987137E-07  0.5379219E-07  0.2657254E-07
 -0.1502923E-08 -0.3013500E-07 -0.5901335E-07 -0.8782003E-07 -0.1162331E-06
 -0.1439304E-06 -0.1705934E-06 -0.1959108E-06 -0.2195827E-06 -0.2413239E-06
 -0.2608674E-06 -0.2779683E-06 -0.2924059E-06 -0.3039875E-06 -0.3125501E-06
 -0.3179631E-06 -0.3201297E-06 -0.3189889E-06 -0.3145155E-06 -0.3067217E-06
 -0.2956562E-06 -0.2814045E-06 -0.2640878E-06 -0.2438619E-06 -0.2209153E-06
 -0.1954675E-06 -0.1677664E-06 -0.1380856E-06 -0.1067212E-06 -0.7398853E-07
 -0.4021858E-07 -0.5754174E-08  0.2905372E-07  0.6385010E-07  0.9827976E-07
  0.1319914E-06  0.1646415E-06  0.1958980E-06  0.2254441E-06  0.2529817E-06
  0.2782343E-06  0.3009498E-06  0.3209037E-06  0.3379005E-06  0.3517759E-06
  0.3623983E-06  0.3696698E-06  0.3735270E-06  0.3739408E-06  0.3709166E-06
  0.3644938E-06  0.3547442E-06  0.3417716E-06  0.3257097E-06  0.3067202E-06
  0.2849909E-06  0.2607327E-06  0.2341779E-06  0.2055763E-06  0.1751934E-06
  0.1433066E-06  0.1102026E-06  0.7617471E-07  0.4151929E-07  0.6533393E-08
 -0.2848814E-07 -0.6325533E-07 -0.9748543E-07 -0.1309052E-06 -0.1632531E-06
 -0.1942808E-06 -0.2237548E-06 -0.2514580E-06 -0.2771907E-06 -0.3007714E-06
 -0.3220377E-06 -0.3408466E-06 -0.3570748E-06 -0.3706190E-06 -0.3813954E-06
 -0.3893399E-06 -0.3944074E-06 -0.3965718E-06 -0.3958252E-06 -0.3921776E-06
 -0.3856561E-06 -0.3763047E-06 -0.3641834E-06 -0.3493675E-06 -0.3319476E-06
 -0.3120285E-06 -0.2897293E-06 -0.2651824E-06 -0.2385337E-06 -0.2099418E-06
 -0.1795779E-06 -0.1476253E-06 -0.1142788E-06 -0.7974501E-07 -0.4424101E-07
 -0.7994494E-08  0.2875707E-07  0.6576711E-07  0.1027809E-06  0.1395364E-06
  0.1757656E-06  0.2111958E-06  0.2455512E-06  0.2785543E-06  0.3099282E-06
  0.3393983E-06  0.3666951E-06  0.3915559E-06  0.4137280E-06  0.4329713E-06
  0.4490609E-06  0.4617901E-06  0.4709733E-06  0.4764486E-06  0.4780808E-06
  0.4757641E-06  0.4694245E-06  0.4590221E-06  0.4445536E-06  0.4260534E-06
  0.4035953E-06  0.3772938E-06  0.3473039E-06  0.3138221E-06  0.2770852E-06
  0.2373702E-06  0.1949921E-06  0.1503029E-06  0.1036883E-06  0.5556531E-07
  0.6378249E-08 -0.4340480E-07 -0.9329656E-07 -0.1427952E-06 -0.1913896E-06
 -0.2385641E-06 -0.2838048E-06 -0.3266048E-06 -0.3664699E-06 -0.4029249E-06
 -0.4355186E-06 -0.4638294E-06 -0.4874705E-06 -0.5060947E-06 -0.5193988E-06
 -0.5271278E-06 -0.5290776E-06 -0.5250986E-06 -0.5150972E-06 -0.4990376E-06
 -0.4769425E-06 -0.4488926E-06 -0.4150264E-06 -0.3755383E-06 -0.3306764E-06
 -0.2807397E-06 -0.2260745E-06 -0.1670697E-06 -0.1041525E-06 -0.3778294E-07
  0.3155219E-07  0.1033451E-06  0.1770735E-06  0.2522070E-06  0.3282139E-06
  0.4045678E-06  0.4807540E-06  0.5562758E-06  0.6306610E-06  0.7034672E-06
  0.7742871E-06  0.8427538E-06  0.9085445E-06  0.9713841E-06  0.1031049E-05
  0.1087369E-05  0.1140228E-05  0.1189567E-05  0.1235384E-05  0.1277731E-05
  0.1316718E-05  0.1352504E-05  0.1385304E-05  0.1415379E-05  0.1443035E-05
  0.1468621E-05  0.1492524E-05  0.1515165E-05  0.1536992E-05  0.1558481E-05
  0.1580127E-05  0.1602440E-05  0.1625943E-05  0.1651166E-05  0.1678640E-05
  0.1708896E-05  0.1742463E-05  0.1779857E-05  0.1821587E-05  0.1868146E-05
  0.1920013E-05  0.1977646E-05  0.2041487E-05  0.2111953E-05  0.2189443E-05
  0.2274331E-05  0.2366966E-05  0.2467678E-05  0.2576770E-05  0.2694524E-05
  0.2821199E-05  0.2957030E-05  0.3102230E-05  0.3256994E-05  0.3421491E-05
  0.3595873E-05  0.3780273E-05  0.3974802E-05  0.4179555E-05  0.4394608E-05
  0.4620022E-05  0.4855838E-05  0.5102084E-05  0.5358772E-05  0.5625901E-05
  0.5903455E-05  0.6191407E-05  0.6489717E-05  0.6798339E-05  0.7117219E-05
  0.7446297E-05  0.7785510E-05  0.8134794E-05  0.8494088E-05  0.8863332E-05
  0.9242479E-05  0.9631487E-05  0.1003034E-04  0.1043902E-04  0.1085757E-04
  0.1128602E-04  0.1172445E-04  0.1217298E-04  0.1263177E-04  0.1310099E-04
  0.1358089E-04  0.1407177E-04  0.1457396E-04  0.1508785E-04  0.1561389E-04
  0.1615258E-04  0.1670448E-04  0.1727020E-04  0.1785039E-04  0.1844577E-04
  0.1905709E-04  0.1968516E-04  0.2033081E-04  0.2099491E-04  0.2167834E-04
  0.2238202E-04  0.2310685E-04  0.2385376E-04  0.2462365E-04  0.2541742E-04
  0.2623592E-04  0.2707998E-04  0.2795040E-04  0.2884788E-04  0.2977311E-04
  0.3072666E-04  0.3170906E-04  0.3272072E-04  0.3376199E-04  0.3483310E-04
  0.3593421E-04  0.3706535E-04  0.3822648E-04  0.3941741E-04  0.4063789E-04
  0.4188758E-04  0.4316600E-04  0.4447265E-04  0.4580689E-04  0.4716804E-04
  0.4855537E-04  0.4996808E-04  0.5140532E-04  0.5286625E-04  0.5434998E-04
  0.5585564E-04  0.5738236E-04  0.5892929E-04  0.6049560E-04  0.6208054E-04
  0.6368337E-04  0.6530347E-04  0.6694026E-04  0.6859323E-04  0.7026200E-04
  0.7194626E-04  0.7364577E-04  0.7536042E-04  0.7709019E-04  0.7883515E-04
  0.8059548E-04  0.8237141E-04  0.8416329E-04  0.8597150E-04  0.8779650E-04
  0.8963882E-04  0.9149898E-04  0.9337755E-04  0.9527511E-04  0.9719223E-04
  0.9912941E-04  0.1010872E-03  0.1030661E-03  0.1050664E-03  0.1070885E-03
  0.1091326E-03  0.1111989E-03  0.1132872E-03  0.1153976E-03  0.1175297E-03
  0.1196832E-03  0.1218575E-03  0.1240519E-03  0.1262657E-03  0.1284978E-03
  0.1307472E-03  0.1330126E-03  0.1352926E-03  0.1375856E-03  0.1398902E-03
  0.1422046E-03  0.1445269E-03  0.1468554E-03  0.1491880E-03  0.1515228E-03
  0.1538578E-03  0.1561910E-03  0.1585202E-03  0.1608436E-03  0.1631592E-03
  0.1654650E-03  0.1677592E-03  0.1700400E-03  0.1723056E-03  0.1745546E-03
  0.1767854E-03  0.1789965E-03  0.1811868E-03  0.1833551E-03  0.1855003E-03
  0.1876216E-03  0.1897182E-03  0.1917893E-03  0.1938345E-03  0.1958533E-03
  0.1978453E-03  0.1998103E-03  0.2017481E-03  0.2036586E-03  0.2055418E-03
  0.2073978E-03  0.2092266E-03  0.2110282E-03  0.2128029E-03  0.2145508E-03
  0.2162719E-03  0.2179664E-03  0.2196343E-03  0.2212759E-03  0.2228910E-03
  0.2244798E-03  0.2260421E-03  0.2275778E-03  0.2290867E-03  0.2305687E-03
  0.2320233E-03  0.2334504E-03  0.2348496E-03  0.2362204E-03  0.2375622E-03
  0.2388746E-03  0.2401570E-03  0.2414087E-03  0.2426290E-03  0.2438175E-03
  0.2449734E-03  0.2460960E-03  0.2471846E-03  0.2482385E-03  0.2492570E-03
  0.2502397E-03  0.2511856E-03  0.2520944E-03  0.2529655E-03  0.2537983E-03
  0.2545925E-03  0.2553475E-03  0.2560631E-03  0.2567390E-03  0.2573750E-03
  0.2579709E-03  0.2585267E-03  0.2590423E-03  0.2595177E-03  0.2599530E-03
  0.2603485E-03  0.2607043E-03  0.2610208E-03  0.2612984E-03  0.2615375E-03
  0.2617384E-03  0.2619018E-03  0.2620282E-03  0.2621183E-03  0.2621727E-03
  0.2621923E-03  0.2621778E-03  0.2621299E-03  0.2620496E-03  0.2619375E-03
  0.2617947E-03  0.2616219E-03  0.2614204E-03  0.2611908E-03  0.2609344E-03
  0.2606519E-03  0.2603444E-03  0.2600127E-03  0.2596579E-03  0.2592809E-03
  0.2588829E-03  0.2584647E-03  0.2580273E-03  0.2575717E-03  0.2570986E-03
  0.2566086E-03  0.2561028E-03  0.2555818E-03  0.2550465E-03  0.2544977E-03
  0.2539360E-03  0.2533620E-03  0.2527762E-03  0.2521790E-03  0.2515709E-03
  0.2509522E-03  0.2503234E-03  0.2496847E-03  0.2490367E-03  0.2483793E-03
  0.2477129E-03  0.2470374E-03  0.2463528E-03  0.2456590E-03  0.2449562E-03
  0.2442444E-03  0.2435236E-03  0.2427938E-03  0.2420551E-03  0.2413072E-03
  0.2405500E-03  0.2397833E-03  0.2390073E-03  0.2382219E-03  0.2374273E-03
  0.2366235E-03  0.2358107E-03  0.2349890E-03  0.2341584E-03  0.2333191E-03
  0.2324713E-03  0.2316153E-03  0.2307516E-03  0.2298808E-03  0.2290033E-03
  0.2281197E-03  0.2272304E-03  0.2263359E-03  0.2254370E-03  0.2245342E-03
  0.2236284E-03  0.2227204E-03  0.2218111E-03  0.2209014E-03  0.2199920E-03
  0.2190835E-03  0.2181768E-03  0.2172726E-03  0.2163719E-03  0.2154755E-03
  0.2145842E-03  0.2136990E-03  0.2128205E-03  0.2119492E-03  0.2110858E-03
  0.2102308E-03  0.2093847E-03  0.2085482E-03  0.2077219E-03  0.2069062E-03
  0.2061015E-03  0.2053081E-03  0.2045261E-03  0.2037556E-03  0.2029969E-03
  0.2022499E-03  0.2015150E-03  0.2007921E-03  0.2000812E-03  0.1993822E-03
  0.1986949E-03  0.1980191E-03  0.1973544E-03  0.1967008E-03  0.1960579E-03
  0.1954255E-03  0.1948036E-03  0.1941916E-03  0.1935893E-03  0.1929962E-03
  0.1924119E-03  0.1918360E-03  0.1912681E-03  0.1907080E-03  0.1901555E-03
  0.1896103E-03  0.1890721E-03  0.1885407E-03  0.1880155E-03  0.1874965E-03
  0.1869832E-03  0.1864758E-03  0.1859742E-03  0.1854785E-03  0.1849888E-03
  0.1845049E-03  0.1840268E-03  0.1835546E-03  0.1830885E-03  0.1826286E-03
  0.1821754E-03  0.1817293E-03  0.1812908E-03  0.1808602E-03  0.1804378E-03
  0.1800241E-03  0.1796193E-03  0.1792240E-03  0.1788388E-03  0.1784643E-03
  0.1781013E-03  0.1777502E-03  0.1774116E-03  0.1770856E-03  0.1767729E-03
  0.1764736E-03  0.1761882E-03  0.1759171E-03  0.1756609E-03  0.1754199E-03
  0.1751941E-03  0.1749835E-03  0.1747880E-03  0.1746074E-03  0.1744415E-03
  0.1742903E-03  0.1741537E-03  0.1740314E-03  0.1739230E-03  0.1738279E-03
  0.1737454E-03  0.1736748E-03  0.1736153E-03  0.1735662E-03  0.1735269E-03
  0.1734969E-03  0.1734754E-03  0.1734615E-03  0.1734544E-03  0.1734530E-03
  0.1734565E-03  0.1734640E-03  0.1734750E-03  0.1734890E-03  0.1735055E-03
  0.1735238E-03  0.1735435E-03  0.1735639E-03  0.1735846E-03  0.1736052E-03
  0.1736256E-03  0.1736458E-03  0.1736658E-03  0.1736859E-03  0.1737059E-03
  0.1737261E-03  0.1737464E-03  0.1737672E-03  0.1737887E-03  0.1738114E-03
  0.1738359E-03  0.1738628E-03  0.1738926E-03  0.1739256E-03  0.1739624E-03
  0.1740031E-03  0.1740484E-03  0.1740986E-03  0.1741544E-03  0.1742162E-03
  0.1742846E-03  0.1743599E-03  0.1744421E-03  0.1745313E-03  0.1746275E-03
  0.1747309E-03  0.1748415E-03  0.1749595E-03  0.1750848E-03  0.1752173E-03
  0.1753566E-03  0.1755022E-03  0.1756538E-03  0.1758109E-03  0.1759731E-03
  0.1761401E-03  0.1763114E-03  0.1764866E-03  0.1766649E-03  0.1768456E-03
  0.1770280E-03  0.1772113E-03  0.1773951E-03  0.1775787E-03  0.1777617E-03
  0.1779434E-03  0.1781233E-03  0.1783006E-03  0.1784747E-03  0.1786450E-03
  0.1788112E-03  0.1789728E-03  0.1791294E-03  0.1792809E-03  0.1794268E-03
  0.1795668E-03  0.1797006E-03  0.1798281E-03  0.1799490E-03  0.1800635E-03
  0.1801716E-03  0.1802732E-03  0.1803685E-03  0.1804575E-03  0.1805405E-03
  0.1806175E-03  0.1806888E-03  0.1807548E-03  0.1808157E-03  0.1808720E-03
  0.1809240E-03  0.1809722E-03  0.1810168E-03  0.1810581E-03  0.1810965E-03
  0.1811323E-03  0.1811660E-03  0.1811980E-03  0.1812286E-03  0.1812582E-03
  0.1812868E-03  0.1813145E-03  0.1813415E-03  0.1813675E-03  0.1813928E-03
  0.1814172E-03  0.1814406E-03  0.1814628E-03  0.1814836E-03  0.1815025E-03
  0.1815187E-03  0.1815317E-03  0.1815409E-03  0.1815454E-03  0.1815447E-03
  0.1815378E-03  0.1815241E-03  0.1815024E-03  0.1814719E-03  0.1814311E-03
  0.1813790E-03  0.1813144E-03  0.1812366E-03  0.1811444E-03  0.1810369E-03
  0.1809132E-03  0.1807724E-03  0.1806135E-03  0.1804355E-03  0.1802378E-03
  0.1800198E-03  0.1797810E-03  0.1795211E-03  0.1792399E-03  0.1789372E-03
  0.1786127E-03  0.1782664E-03  0.1778983E-03  0.1775086E-03  0.1770978E-03
  0.1766664E-03  0.1762154E-03  0.1757453E-03  0.1752570E-03  0.1747512E-03
  0.1742287E-03  0.1736906E-03  0.1731379E-03  0.1725721E-03  0.1719946E-03
  0.1714065E-03  0.1708091E-03  0.1702034E-03  0.1695906E-03  0.1689716E-03
  0.1683478E-03  0.1677205E-03  0.1670911E-03  0.1664609E-03  0.1658311E-03
  0.1652028E-03  0.1645769E-03  0.1639543E-03  0.1633358E-03  0.1627226E-03
  0.1621157E-03  0.1615164E-03  0.1609256E-03  0.1603442E-03  0.1597732E-03
  0.1592130E-03  0.1586645E-03  0.1581284E-03  0.1576057E-03  0.1570976E-03
  0.1566053E-03  0.1561297E-03  0.1556718E-03  0.1552326E-03  0.1548126E-03
  0.1544129E-03  0.1540344E-03  0.1536783E-03  0.1533460E-03  0.1530389E-03
  0.1527580E-03  0.1525043E-03  0.1522787E-03  0.1520819E-03  0.1519148E-03
  0.1517785E-03  0.1516741E-03  0.1516028E-03  0.1515657E-03  0.1515634E-03
  0.1515964E-03  0.1516648E-03  0.1517688E-03  0.1519087E-03  0.1520848E-03
  0.1522974E-03  0.1525467E-03  0.1528324E-03  0.1531542E-03  0.1535112E-03
  0.1539024E-03  0.1543270E-03  0.1547842E-03  0.1552728E-03  0.1557922E-03
  0.1563411E-03  0.1569179E-03  0.1575209E-03  0.1581479E-03  0.1587971E-03
  0.1594663E-03  0.1601536E-03  0.1608573E-03  0.1615754E-03  0.1623057E-03
  0.1630459E-03  0.1637934E-03  0.1645456E-03  0.1653001E-03  0.1660545E-03
  0.1668068E-03  0.1675551E-03  0.1682969E-03  0.1690302E-03  0.1697523E-03
  0.1704609E-03  0.1711537E-03  0.1718288E-03  0.1724843E-03  0.1731186E-03
  0.1737297E-03  0.1743156E-03  0.1748745E-03  0.1754043E-03  0.1759033E-03
  0.1763699E-03  0.1768025E-03  0.1771998E-03  0.1775604E-03  0.1778829E-03
  0.1781657E-03  0.1784072E-03  0.1786061E-03  0.1787612E-03  0.1788713E-03
  0.1789356E-03  0.1789532E-03  0.1789231E-03  0.1788440E-03  0.1787147E-03
  0.1785342E-03  0.1783017E-03  0.1780166E-03  0.1776784E-03  0.1772869E-03
  0.1768414E-03  0.1763413E-03  0.1757862E-03  0.1751755E-03  0.1745093E-03
  0.1737877E-03  0.1730111E-03  0.1721801E-03  0.1712952E-03  0.1703569E-03
  0.1693657E-03  0.1683221E-03  0.1672272E-03  0.1660820E-03  0.1648883E-03
  0.1636480E-03  0.1623628E-03  0.1610349E-03  0.1596660E-03  0.1582580E-03
  0.1568131E-03  0.1553337E-03  0.1538229E-03  0.1522839E-03  0.1507202E-03
  0.1491351E-03  0.1475317E-03  0.1459132E-03  0.1442828E-03  0.1426440E-03
  0.1410008E-03  0.1393575E-03  0.1377186E-03  0.1360886E-03  0.1344717E-03
  0.1328715E-03  0.1312922E-03  0.1297377E-03  0.1282127E-03  0.1267218E-03
  0.1252700E-03  0.1238620E-03  0.1225020E-03  0.1211942E-03  0.1199424E-03
  0.1187506E-03  0.1176228E-03  0.1165631E-03  0.1155762E-03  0.1146661E-03
  0.1138369E-03  0.1130922E-03  0.1124351E-03  0.1118687E-03  0.1113958E-03
  0.1110197E-03  0.1107431E-03  0.1105690E-03  0.1104999E-03  0.1105379E-03
  0.1106847E-03  0.1109414E-03  0.1113092E-03  0.1117892E-03  0.1123823E-03
  0.1130893E-03  0.1139107E-03  0.1148466E-03  0.1158967E-03  0.1170603E-03
  0.1183362E-03  0.1197233E-03  0.1212199E-03  0.1228248E-03  0.1245360E-03
  0.1263517E-03  0.1282696E-03  0.1302868E-03  0.1324005E-03  0.1346073E-03
  0.1369040E-03  0.1392872E-03  0.1417535E-03  0.1442992E-03  0.1469207E-03
  0.1496139E-03  0.1523748E-03  0.1551991E-03  0.1580826E-03  0.1610209E-03
  0.1640098E-03  0.1670453E-03  0.1701231E-03  0.1732389E-03  0.1763884E-03
  0.1795673E-03  0.1827715E-03  0.1859965E-03  0.1892384E-03  0.1924929E-03
  0.1957561E-03  0.1990241E-03  0.2022930E-03  0.2055585E-03  0.2088167E-03
  0.2120638E-03  0.2152962E-03  0.2185102E-03  0.2217025E-03  0.2248695E-03
  0.2280077E-03  0.2311136E-03  0.2341837E-03  0.2372147E-03  0.2402036E-03
  0.2431473E-03  0.2460430E-03  0.2488880E-03  0.2516796E-03  0.2544150E-03
  0.2570916E-03  0.2597070E-03  0.2622591E-03  0.2647459E-03  0.2671659E-03
  0.2695176E-03  0.2717996E-03  0.2740108E-03  0.2761501E-03  0.2782167E-03
  0.2802103E-03  0.2821308E-03  0.2839790E-03  0.2857557E-03  0.2874619E-03
  0.2890990E-03  0.2906686E-03  0.2921725E-03  0.2936130E-03  0.2949931E-03
  0.2963161E-03  0.2975858E-03  0.2988063E-03  0.2999820E-03  0.3011173E-03
  0.3022169E-03  0.3032860E-03  0.3043302E-03  0.3053557E-03  0.3063689E-03
  0.3073768E-03  0.3083865E-03  0.3094054E-03  0.3104405E-03  0.3114993E-03
  0.3125897E-03  0.3137196E-03  0.3148977E-03  0.3161326E-03  0.3174333E-03
  0.3188086E-03  0.3202671E-03  0.3218178E-03  0.3234692E-03  0.3252309E-03
  0.3271119E-03  0.3291217E-03  0.3312701E-03  0.3335665E-03  0.3360205E-03
  0.3386411E-03  0.3414376E-03  0.3444189E-03  0.3475942E-03  0.3509731E-03
  0.3545649E-03  0.3583790E-03  0.3624246E-03  0.3667104E-03  0.3712453E-03
  0.3760376E-03  0.3810959E-03  0.3864288E-03  0.3920451E-03  0.3979532E-03
  0.4041614E-03  0.4106778E-03  0.4175098E-03  0.4246650E-03  0.4321505E-03
  0.4399734E-03  0.4481410E-03  0.4566600E-03  0.4655372E-03  0.4747790E-03
  0.4843914E-03  0.4943800E-03  0.5047504E-03  0.5155075E-03  0.5266563E-03
  0.5382014E-03  0.5501471E-03  0.5624974E-03  0.5752556E-03  0.5884249E-03
  0.6020077E-03  0.6160059E-03  0.6304213E-03  0.6452550E-03  0.6605083E-03
  0.6761814E-03  0.6922745E-03  0.7087868E-03  0.7257171E-03  0.7430636E-03
  0.7608240E-03  0.7789955E-03  0.7975751E-03  0.8165591E-03  0.8359432E-03
  0.8557229E-03  0.8758924E-03  0.8964456E-03  0.9173761E-03  0.9386766E-03
  0.9603399E-03  0.9823582E-03  0.1004723E-02  0.1027426E-02  0.1050457E-02