  0.1425000      -12345.00      -12345.00      0.1000000E+10  -12345.00    
  -30.00000      -12345.00       0.000000      -12345.00      -12345.00    
  -12345.00      -12345.00      -12345.00      -12345.00      -12345.00    
  -12345.00      -12345.00      -12345.00      -12345.00      -12345.00    
  -12345.00      -12345.00      -12345.00      -12345.00      -12345.00    
  -12345.00      -12345.00      -12345.00      -12345.00      -12345.00    
  -12345.00      -11.98750      -76.84220       575.0000       0.000000    
  -13.82000      -67.25000      -12345.00       647.1000      -12345.00    
   20.00000       34.00000       500.0000      -12345.00      -12345.00    
  -12345.00      -12345.00      -12345.00      -12345.00      -12345.00    
  -12345.00      -12345.00      -12345.00      -12345.00      -12345.00    
  -12345.00      -12345.00       90.00000       90.00000      -12345.00    
  -12345.00      -12345.00      -12345.00      -12345.00      -12345.00    
  -12345.00      -12345.00      -12345.00      -12345.00      -12345.00    
      1994       160         0        33        45
       399         6    -12345    -12345     25600
    -12345    -12345    -12345    -12345    -12345
         1         6        11    -12345    -12345
    -12345    -12345        40    -12345    -12345
    -12345    -12345    -12345    -12345    -12345
    -12345    -12345    -12345    -12345    -12345
         1         1         1         1    -12345
NNA     060994A         
S3      -12345  -12345  
-12345  -12345  -12345  
-12345  -12345  -12345  
-12345  -12345  -12345  
-12345  -12345  SY      
SEM7.0.0Horse   MXE     
II      -12345  -12345  
   0.000000       0.000000       0.000000       0.000000       0.000000    
   0.000000       0.000000       0.000000       0.000000       0.000000    
   0.000000       0.000000       0.000000       0.000000       0.000000    
   0.000000       0.000000       0.000000       0.000000       0.000000    
   0.000000       0.000000       0.000000       0.000000       0.000000    
   0.000000       0.000000       0.000000       0.000000       0.000000    
   0.000000       0.000000       0.000000       0.000000       0.000000    
   0.000000       0.000000       0.000000       0.000000       0.000000    
   0.000000       0.000000       0.000000       0.000000       0.000000    
   0.000000       0.000000       0.000000       0.000000       0.000000    
   0.000000       0.000000       0.000000       0.000000       0.000000    
   0.000000       0.000000       0.000000       0.000000       0.000000    
   0.000000       0.000000       0.000000       0.000000       0.000000    
   0.000000       0.000000       0.000000       0.000000       0.000000    
   0.000000       0.000000     -0.1638540E-32 -0.6348669E-32 -0.1364779E-31
 -0.1948730E-31 -0.2659160E-31 -0.2864278E-31 -0.1243759E-31  0.2466534E-31
  0.8506554E-31  0.1496594E-30  0.1960088E-30  0.2084143E-30  0.1773202E-30
  0.9756144E-31 -0.3182744E-31 -0.2237278E-30 -0.4577973E-30 -0.6736407E-30
 -0.8010469E-30 -0.1347818E-30  0.1463940E-29  0.2076153E-29  0.1075475E-29
 -0.1687353E-29 -0.1424771E-29 -0.5879905E-29 -0.1561235E-28 -0.3034822E-28
 -0.4916350E-28 -0.7056447E-28 -0.8908390E-28 -0.9893535E-28 -0.9275552E-28
 -0.6480838E-28 -0.8735202E-29  0.7874535E-28  0.1957080E-27  0.3343270E-27
  0.4804615E-27  0.6117263E-27  0.6966550E-27  0.6980735E-27  0.5777131E-27
  0.2993204E-27 -0.1642906E-27 -0.8206794E-27 -0.1651085E-26 -0.2599444E-26
 -0.3566112E-26 -0.4402627E-26 -0.4915087E-26 -0.4872821E-26 -0.4028533E-26
 -0.2148568E-26  0.9457221E-27  0.5327466E-26  0.1090805E-25  0.1738054E-25
  0.2417226E-25  0.3041672E-25  0.3495563E-25  0.3638351E-25  0.3314504E-25
  0.2369186E-25  0.6700984E-26 -0.1865380E-25 -0.5239095E-25 -0.9339892E-25
 -0.1391416E-24 -0.1854384E-24 -0.2263756E-24 -0.2544090E-24 -0.2607104E-24
 -0.2358050E-24 -0.1705193E-24 -0.5723505E-25  0.1086002E-24  0.3267993E-24
  0.5907411E-24  0.8858518E-24  0.1188499E-23  0.1465564E-23  0.1674968E-23
  0.1767411E-23  0.1689504E-23  0.1388429E-23  0.8180543E-24 -0.5365903E-25
 -0.1236401E-23 -0.2709012E-23 -0.4411578E-23 -0.6239171E-23 -0.8038371E-23
 -0.9607820E-23 -0.1070395E-22 -0.1105288E-22 -0.1036904E-22 -0.8380768E-23
 -0.4862188E-23  0.3298589E-24  0.7216062E-23  0.1565519E-22  0.2530884E-22
  0.3561501E-22  0.4577564E-22  0.5476301E-22  0.6134990E-22  0.6416716E-22
  0.6179084E-22  0.5285898E-22  0.3621533E-22  0.1107423E-22 -0.2280276E-22
 -0.6493090E-22 -0.1139435E-21 -0.1674679E-21 -0.2220579E-21 -0.2732007E-21
 -0.3154198E-21 -0.3424876E-21 -0.3477579E-21 -0.3246210E-21 -0.2670736E-21
 -0.1703833E-21 -0.3181791E-22  0.1486063E-21  0.3674140E-21  0.6170643E-21
  0.8855227E-21  0.1156090E-20  0.1407561E-20  0.1614782E-20  0.1749652E-20
  0.1782599E-20  0.1684522E-20  0.1429157E-20  0.9957904E-21  0.3721761E-21
 -0.4425041E-21 -0.1434857E-20 -0.2574915E-20 -0.3814472E-20 -0.5086378E-20
 -0.6305076E-20 -0.7368595E-20 -0.8162174E-20 -0.8563605E-20 -0.8450299E-20
 -0.7707889E-20 -0.6240145E-20 -0.3979736E-20 -0.8992661E-21  0.2978086E-20
  0.7569194E-20  0.1272374E-19  0.1822003E-19  0.2376476E-19  0.2899760E-19
  0.3350107E-19  0.3681634E-19  0.3846483E-19  0.3797546E-19  0.3491682E-19
  0.2893305E-19  0.1978190E-19  0.7372923E-20 -0.8196673E-20 -0.2661116E-19
 -0.4731330E-19 -0.6949217E-19 -0.9208429E-19 -0.1137909E-18 -0.1331126E-18
 -0.1484024E-18 -0.1579383E-18 -0.1600123E-18 -0.1530351E-18 -0.1356530E-18
 -0.1068698E-18 -0.6617106E-19 -0.1363965E-19  0.4994223E-19  0.1230145E-18
  0.2031928E-18  0.2872610E-18  0.3712103E-18  0.4503302E-18  0.5193536E-18
  0.5726577E-18  0.6045168E-18  0.6094021E-18  0.5823186E-18  0.5191652E-18
  0.4171032E-18  0.2749126E-18  0.9331540E-19 -0.1247567E-18 -0.3739717E-18
 -0.6465103E-18 -0.9320952E-18 -0.1218158E-17 -0.1490150E-17 -0.1732005E-17
 -0.1926748E-17 -0.2057233E-17 -0.2107005E-17 -0.2061234E-17 -0.1907705E-17
 -0.1637799E-17 -0.1247431E-17 -0.7378714E-18 -0.1164144E-18  0.6031801E-18
  0.1400515E-17  0.2248702E-17  0.3114838E-17  0.3960865E-17  0.4744781E-17
  0.5422204E-17  0.5948231E-17  0.6279554E-17  0.6376735E-17  0.6206552E-17
  0.5744290E-17  0.4975879E-17  0.3899713E-17  0.2528044E-17  0.8878445E-18
 -0.9789880E-18 -0.3016181E-17 -0.5154376E-17 -0.7313238E-17 -0.9404297E-17
 -0.1133450E-16 -0.1301031E-16 -0.1434215E-16 -0.1524912E-16 -0.1566358E-16
 -0.1553539E-16 -0.1483562E-16 -0.1355932E-16 -0.1172711E-16 -0.9385568E-17
 -0.6605967E-17 -0.3481516E-17 -0.1229498E-18  0.3347276E-17  0.6802175E-17
  0.1011819E-16  0.1318382E-16  0.1590821E-16  0.1822912E-16  0.2011963E-16
  0.2159301E-16  0.2270496E-16  0.2355284E-16  0.2427126E-16  0.2502386E-16
  0.2599124E-16  0.2735464E-16  0.2927678E-16  0.3187973E-16  0.3522132E-16
  0.3927108E-16  0.4388746E-16  0.4879831E-16  0.5358612E-16  0.5768075E-16
  0.6036053E-16  0.6076446E-16  0.5791692E-16  0.5076531E-16  0.3823133E-16
  0.1927649E-16 -0.7020780E-17 -0.4137751E-16 -0.8421050E-16 -0.1355374E-15
 -0.1948800E-15 -0.2611737E-15 -0.3326897E-15 -0.4069800E-15 -0.4808467E-15
 -0.5503490E-15 -0.6108472E-15 -0.6570964E-15 -0.6833873E-15 -0.6837417E-15
 -0.6521592E-15 -0.5829148E-15 -0.4708994E-15 -0.3119969E-15 -0.1034861E-15
  0.1555515E-15  0.4638321E-15  0.8174974E-15  0.1209801E-14  0.1630869E-14
  0.2067566E-14  0.2503480E-14  0.2919063E-14  0.3291942E-14  0.3597402E-14
  0.3809068E-14  0.3899778E-14  0.3842642E-14  0.3612272E-14  0.3186153E-14
  0.2546123E-14  0.1679915E-14  0.5826991E-15 -0.7414443E-15 -0.2278169E-14
 -0.4001743E-14 -0.5874204E-14 -0.7844925E-14 -0.9850605E-14 -0.1181580E-13
 -0.1365403E-13 -0.1526955E-13 -0.1655972E-13 -0.1741809E-13 -0.1773804E-13
 -0.1741706E-13 -0.1636148E-13 -0.1449159E-13 -0.1174697E-13 -0.8091809E-14
 -0.3520178E-14  0.1939247E-14  0.8218959E-14  0.1520941E-13  0.2275689E-13
  0.3066277E-13  0.3868445E-13  0.4653806E-13  0.5390312E-13  0.6042925E-13
  0.6574501E-13  0.6946868E-13  0.7122106E-13  0.7063981E-13  0.6739531E-13
  0.6120741E-13  0.5186267E-13  0.3923152E-13  0.2328474E-13  0.4108499E-14
 -0.1808281E-13 -0.4293655E-13 -0.6995552E-13 -0.9849579E-13 -0.1277698E-12
 -0.1568546E-12 -0.1847061E-12 -0.2101797E-12 -0.2320563E-12 -0.2490754E-12
 -0.2599733E-12 -0.2635257E-12 -0.2585954E-12 -0.2441827E-12 -0.2194770E-12
 -0.1839091E-12 -0.1372012E-12 -0.7941395E-13 -0.1098714E-13  0.6722657E-13
  0.1539381E-12  0.2474099E-12  0.3454572E-12  0.4454643E-12  0.5444172E-12
  0.6389523E-12  0.7254239E-12  0.7999875E-12  0.8587000E-12  0.8976351E-12
  0.9130109E-12  0.9013289E-12  0.8595193E-12  0.7850893E-12  0.6762717E-12
  0.5321655E-12  0.3528671E-12  0.1395843E-12 -0.1052709E-12 -0.3780175E-12
 -0.6736711E-12 -0.9859479E-12 -0.1307307E-11 -0.1629039E-11 -0.1941395E-11
 -0.2233767E-11 -0.2494912E-11 -0.2713219E-11 -0.2877016E-11 -0.2974915E-11
 -0.2996181E-11 -0.2931127E-11 -0.2771516E-11 -0.2510965E-11 -0.2145336E-11
 -0.1673102E-11 -0.1095679E-11 -0.4177061E-12  0.3527466E-12  0.1204036E-11
  0.2120900E-11  0.3084508E-11  0.4072621E-11  0.5059860E-11  0.6018105E-11
  0.6916992E-11  0.7724542E-11  0.8407892E-11  0.8934121E-11  0.9271170E-11
  0.9388822E-11  0.9259733E-11  0.8860478E-11  0.8172611E-11  0.7183664E-11
  0.5888110E-11  0.4288210E-11  0.2394733E-11  0.2275279E-12 -0.2184117E-11
 -0.4801313E-11 -0.7575669E-11 -0.1044964E-10 -0.1335718E-10 -0.1622463E-10
 -0.1897198E-10 -0.2151430E-10 -0.2376356E-10 -0.2563062E-10 -0.2702745E-10
 -0.2786956E-10 -0.2807848E-10 -0.2758445E-10 -0.2632901E-10 -0.2426754E-10
 -0.2137177E-10 -0.1763201E-10 -0.1305913E-10 -0.7686204E-11 -0.1569733E-11
  0.5209641E-11  0.1254692E-10  0.2031320E-10  0.2835664E-10  0.3650429E-10
  0.4456437E-10  0.5232941E-10  0.5957994E-10  0.6608884E-10  0.7162623E-10
  0.7596491E-10  0.7888606E-10  0.8018540E-10  0.7967935E-10  0.7721133E-10
  0.7265785E-10  0.6593433E-10  0.5700054E-10  0.4586526E-10  0.3259036E-10
  0.1729375E-10  0.1513975E-12 -0.1860200E-10 -0.3867356E-10 -0.5971426E-10
 -0.8132243E-10 -0.1030488E-09 -0.1244028E-09 -0.1448608E-09 -0.1638757E-09
 -0.1808868E-09 -0.1953324E-09 -0.2066622E-09 -0.2143507E-09 -0.2179112E-09
 -0.2169099E-09 -0.2109800E-09 -0.1998348E-09 -0.1832806E-09 -0.1612287E-09
 -0.1337046E-09 -0.1008569E-09 -0.6296331E-10 -0.2043422E-10  0.2618615E-10
  0.7622158E-10  0.1288687E-09  0.1832052E-09  0.2382003E-09  0.2927298E-09
  0.3455930E-09  0.3955329E-09  0.4412591E-09  0.4814727E-09  0.5148933E-09
  0.5402874E-09  0.5564981E-09  0.5624742E-09  0.5573000E-09  0.5402241E-09
  0.5106862E-09  0.4683416E-09  0.4130842E-09  0.3450639E-09  0.2647018E-09
  0.1726995E-09  0.7004431E-10 -0.4199226E-10 -0.1618608E-09 -0.2877466E-09
 -0.4175888E-09 -0.5491054E-09 -0.6798237E-09 -0.8071178E-09 -0.9282496E-09
 -0.1040416E-08 -0.1140800E-08 -0.1226623E-08 -0.1295205E-08 -0.1344017E-08
 -0.1370744E-08 -0.1373343E-08 -0.1350094E-08 -0.1299658E-08 -0.1221122E-08
 -0.1114045E-08 -0.9784910E-09 -0.8150631E-09 -0.6249206E-09 -0.4097913E-09
 -0.1719742E-09  0.8567053E-10  0.3597409E-09  0.6463241E-09  0.9410381E-09
  0.1239085E-08  0.1535313E-08  0.1824289E-08  0.2100383E-08  0.2357853E-08
  0.2590945E-08  0.2793991E-08  0.2961519E-08  0.3088352E-08  0.3169723E-08
  0.3201377E-08  0.3179671E-08  0.3101671E-08  0.2965246E-08  0.2769138E-08
  0.2513040E-08  0.2197642E-08  0.1824681E-08  0.1396961E-08  0.9183646E-09
  0.3938417E-09 -0.1706142E-09 -0.7680130E-09 -0.1390433E-08 -0.2029102E-08
 -0.2674498E-08 -0.3316467E-08 -0.3944352E-08 -0.4547148E-08 -0.5113652E-08
 -0.5632640E-08 -0.6093044E-08 -0.6484134E-08 -0.6795703E-08 -0.7018261E-08
 -0.7143211E-08 -0.7163033E-08 -0.7071452E-08 -0.6863599E-08 -0.6536150E-08
 -0.6087456E-08 -0.5517649E-08 -0.4828725E-08 -0.4024608E-08 -0.3111176E-08
 -0.2096274E-08 -0.9896824E-09  0.1969293E-09  0.1450089E-08  0.2754639E-08
  0.4093876E-08  0.5449726E-08  0.6802949E-08  0.8133358E-08  0.9420072E-08
  0.1064179E-07  0.1177707E-07  0.1280465E-07  0.1370375E-07  0.1445439E-07
  0.1503771E-07  0.1543632E-07  0.1563458E-07  0.1561893E-07  0.1537816E-07
  0.1490370E-07  0.1418985E-07  0.1323397E-07  0.1203674E-07  0.1060220E-07
  0.8937951E-08  0.7055152E-08  0.4968563E-08  0.2696503E-08  0.2607678E-09
 -0.2313503E-08 -0.4998015E-08 -0.7761547E-08 -0.1057025E-07 -0.1338795E-07
 -0.1617659E-07 -0.1889658E-07 -0.2150730E-07 -0.2396762E-07 -0.2623634E-07
 -0.2827283E-07 -0.3003758E-07 -0.3149273E-07 -0.3260270E-07 -0.3333476E-07
 -0.3365962E-07 -0.3355192E-07 -0.3299082E-07 -0.3196045E-07 -0.3045040E-07
 -0.2845604E-07 -0.2597894E-07 -0.2302710E-07 -0.1961514E-07 -0.1576447E-07
 -0.1150329E-07 -0.6866580E-08 -0.1895930E-08  0.3360665E-08  0.8849129E-08
  0.1450973E-07  0.2027757E-07  0.2608321E-07  0.3185335E-07  0.3751157E-07
  0.4297921E-07  0.4817627E-07  0.5302239E-07  0.5743784E-07  0.6134466E-07
  0.6466766E-07  0.6733556E-07  0.6928214E-07  0.7044723E-07  0.7077787E-07
  0.7022925E-07  0.6876572E-07  0.6636165E-07  0.6300220E-07  0.5868405E-07
  0.5341594E-07  0.4721909E-07  0.4012755E-07  0.3218830E-07  0.2346125E-07
  0.1401902E-07  0.3946632E-08 -0.6659045E-08 -0.1769005E-07 -0.2902817E-07
 -0.4054600E-07 -0.5210821E-07 -0.6357286E-07 -0.7479300E-07 -0.8561828E-07
 -0.9589672E-07 -0.1054766E-06 -0.1142083E-06 -0.1219465E-06 -0.1285519E-06
 -0.1338936E-06 -0.1378508E-06 -0.1403150E-06 -0.1411914E-06 -0.1404014E-06
 -0.1378835E-06 -0.1335955E-06 -0.1275149E-06 -0.1196408E-06 -0.1099944E-06
 -0.9861958E-07 -0.8558312E-07 -0.7097506E-07 -0.5490822E-07 -0.3751770E-07
 -0.1896008E-07  0.5878128E-09  0.2093032E-07  0.4185468E-07  0.6313311E-07
  0.8452509E-07  0.1057798E-06  0.1266390E-06  0.1468399E-06  0.1661182E-06
  0.1842114E-06  0.2008621E-06  0.2158211E-06  0.2288511E-06  0.2397298E-06
  0.2482530E-06  0.2542380E-06  0.2575262E-06  0.2579859E-06  0.2555149E-06
  0.2500424E-06  0.2415312E-06  0.2299783E-06  0.2154172E-06  0.1979175E-06
  0.1775856E-06  0.1545645E-06  0.1290327E-06  0.1012037E-06  0.7132380E-07
  0.3967030E-07  0.6549101E-08 -0.2770834E-07 -0.6274820E-07 -0.9819791E-07
 -0.1336702E-06 -0.1687671E-06 -0.2030844E-06 -0.2362167E-06 -0.2677614E-06
 -0.2973240E-06 -0.3245227E-06 -0.3489932E-06 -0.3703933E-06 -0.3884072E-06
 -0.4027499E-06 -0.4131711E-06 -0.4194587E-06 -0.4214420E-06 -0.4189944E-06
 -0.4120360E-06 -0.4005350E-06 -0.3845093E-06 -0.3640268E-06 -0.3392059E-06
 -0.3102147E-06 -0.2772700E-06 -0.2406360E-06 -0.2006218E-06 -0.1575786E-06
 -0.1118964E-06 -0.6400092E-07 -0.1434841E-07  0.3657823E-07  0.8827460E-07
  0.1402201E-06  0.1918831E-06  0.2427271E-06  0.2922160E-06  0.3398199E-06
  0.3850213E-06  0.4273203E-06  0.4662404E-06  0.5013336E-06  0.5321857E-06
  0.5584207E-06  0.5797053E-06  0.5957526E-06  0.6063256E-06  0.6112400E-06
  0.6103665E-06  0.6036326E-06  0.5910237E-06  0.5725836E-06  0.5484143E-06
  0.5186755E-06  0.4835833E-06  0.4434081E-06  0.3984723E-06  0.3491474E-06
  0.2958501E-06  0.2390388E-06  0.1792091E-06  0.1168887E-06  0.5263273E-07
 -0.1298169E-07 -0.7936118E-07 -0.1459017E-06 -0.2119944E-06 -0.2770313E-06
 -0.3404112E-06 -0.4015455E-06 -0.4598637E-06 -0.5148186E-06 -0.5658918E-06
 -0.6125979E-06 -0.6544898E-06 -0.6911621E-06 -0.7222552E-06 -0.7474582E-06
 -0.7665118E-06 -0.7792108E-06 -0.7854049E-06 -0.7850011E-06 -0.7779632E-06
 -0.7643128E-06 -0.7441283E-06 -0.7175441E-06 -0.6847495E-06 -0.6459862E-06
 -0.6015464E-06 -0.5517699E-06 -0.4970407E-06 -0.4377839E-06 -0.3744612E-06
 -0.3075675E-06 -0.2376261E-06 -0.1651843E-06 -0.9080871E-07 -0.1508054E-07
  0.6140935E-07  0.1380650E-06  0.2142905E-06  0.2894944E-06  0.3630942E-06
  0.4345209E-06  0.5032233E-06  0.5686719E-06  0.6303621E-06  0.6878187E-06
  0.7405980E-06  0.7882911E-06  0.8305264E-06  0.8669718E-06  0.8973363E-06
  0.9213716E-06  0.9388731E-06  0.9496807E-06  0.9536794E-06  0.9507995E-06
  0.9410160E-06  0.9243486E-06  0.9008606E-06  0.8706584E-06  0.8338895E-06
  0.7907423E-06  0.7414430E-06  0.6862551E-06  0.6254766E-06  0.5594385E-06
  0.4885023E-06  0.4130576E-06  0.3335201E-06  0.2503288E-06  0.1639436E-06
  0.7484280E-07 -0.1647981E-07 -0.1095173E-06 -0.2037526E-06 -0.2986611E-06
 -0.3937135E-06 -0.4883787E-06 -0.5821267E-06 -0.6744314E-06 -0.7647737E-06
 -0.8526447E-06 -0.9375482E-06 -0.1019005E-05 -0.1096553E-05 -0.1169756E-05
 -0.1238200E-05 -0.1301503E-05 -0.1359312E-05 -0.1411313E-05 -0.1457227E-05
 -0.1496818E-05 -0.1529895E-05 -0.1556313E-05 -0.1575979E-05 -0.1588851E-05
 -0.1594944E-05 -0.1594329E-05 -0.1587137E-05 -0.1573560E-05 -0.1553850E-05
 -0.1528323E-05 -0.1497360E-05 -0.1461402E-05 -0.1420954E-05 -0.1376581E-05
 -0.1328910E-05 -0.1278624E-05 -0.1226460E-05 -0.1173209E-05 -0.1119707E-05
 -0.1066835E-05 -0.1015513E-05 -0.9666904E-06 -0.9213475E-06 -0.8804832E-06
 -0.8451107E-06 -0.8162498E-06 -0.7949197E-06 -0.7821314E-06 -0.7788801E-06
 -0.7861370E-06 -0.8048422E-06 -0.8358963E-06 -0.8801537E-06 -0.9384146E-06
 -0.1011419E-05 -0.1099841E-05 -0.1204280E-05 -0.1325259E-05 -0.1463220E-05
 -0.1618515E-05 -0.1791412E-05 -0.1982085E-05 -0.2190616E-05 -0.2416998E-05
 -0.2661130E-05 -0.2922822E-05 -0.3201798E-05 -0.3497699E-05 -0.3810089E-05
 -0.4138459E-05 -0.4482234E-05 -0.4840782E-05 -0.5213421E-05 -0.5599428E-05
 -0.5998048E-05 -0.6408503E-05 -0.6830006E-05 -0.7261768E-05 -0.7703009E-05
 -0.8152973E-05 -0.8610933E-05 -0.9076204E-05 -0.9548153E-05 -0.1002621E-04
 -0.1050988E-04 -0.1099873E-04 -0.1149244E-04 -0.1199078E-04 -0.1249360E-04
 -0.1300089E-04 -0.1351271E-04 -0.1402927E-04 -0.1455088E-04 -0.1507796E-04
 -0.1561107E-04 -0.1615087E-04 -0.1669812E-04 -0.1725372E-04 -0.1781866E-04
 -0.1839401E-04 -0.1898098E-04 -0.1958082E-04 -0.2019488E-04 -0.2082459E-04
 -0.2147142E-04 -0.2213691E-04 -0.2282262E-04 -0.2353017E-04 -0.2426118E-04
 -0.2501729E-04 -0.2580015E-04 -0.2661137E-04 -0.2745259E-04 -0.2832538E-04
 -0.2923129E-04 -0.3017184E-04 -0.3114845E-04 -0.3216254E-04 -0.3321542E-04
 -0.3430834E-04 -0.3544249E-04 -0.3661895E-04 -0.3783873E-04 -0.3910274E-04
 -0.4041183E-04 -0.4176671E-04 -0.4316805E-04 -0.4461640E-04 -0.4611221E-04
 -0.4765587E-04 -0.4924765E-04 -0.5088776E-04 -0.5257632E-04 -0.5431338E-04
 -0.5609889E-04 -0.5793276E-04 -0.5981483E-04 -0.6174487E-04 -0.6372260E-04
 -0.6574771E-04 -0.6781980E-04 -0.6993846E-04 -0.7210327E-04 -0.7431373E-04
 -0.7656935E-04 -0.7886964E-04 -0.8121406E-04 -0.8360208E-04 -0.8603318E-04
 -0.8850682E-04 -0.9102249E-04 -0.9357969E-04 -0.9617792E-04 -0.9881672E-04
 -0.1014956E-03 -0.1042143E-03 -0.1069722E-03 -0.1097691E-03 -0.1126047E-03
 -0.1154786E-03 -0.1183907E-03 -0.1213407E-03 -0.1243284E-03 -0.1273539E-03
 -0.1304169E-03 -0.1335176E-03 -0.1366558E-03 -0.1398316E-03 -0.1430451E-03
 -0.1462964E-03 -0.1495857E-03 -0.1529132E-03 -0.1562790E-03 -0.1596834E-03
 -0.1631265E-03 -0.1666086E-03 -0.1701299E-03 -0.1736907E-03 -0.1772912E-03
 -0.1809315E-03 -0.1846117E-03 -0.1883321E-03 -0.1920927E-03 -0.1958935E-03
 -0.1997345E-03 -0.2036155E-03 -0.2075365E-03 -0.2114971E-03 -0.2154971E-03
 -0.2195359E-03 -0.2236131E-03 -0.2277280E-03 -0.2318800E-03 -0.2360681E-03
 -0.2402915E-03 -0.2445491E-03 -0.2488398E-03 -0.2531622E-03 -0.2575150E-03
 -0.2618968E-03 -0.2663060E-03 -0.2707409E-03 -0.2751997E-03 -0.2796807E-03
 -0.2841820E-03 -0.2887015E-03 -0.2932374E-03 -0.2977875E-03 -0.3023499E-03
 -0.3069223E-03 -0.3115028E-03 -0.3160892E-03 -0.3206794E-03 -0.3252715E-03
 -0.3298632E-03 -0.3344528E-03 -0.3390381E-03 -0.3436174E-03 -0.3481888E-03
 -0.3527506E-03 -0.3573012E-03 -0.3618390E-03 -0.3663627E-03 -0.3708708E-03
 -0.3753621E-03 -0.3798355E-03 -0.3842898E-03 -0.3887242E-03 -0.3931377E-03
 -0.3975296E-03 -0.4018992E-03 -0.4062458E-03 -0.4105688E-03 -0.4148679E-03
 -0.4191425E-03 -0.4233923E-03 -0.4276170E-03 -0.4318162E-03 -0.4359896E-03
 -0.4401370E-03 -0.4442581E-03 -0.4483526E-03 -0.4524203E-03 -0.4564607E-03
 -0.4604735E-03 -0.4644583E-03 -0.4684147E-03 -0.4723421E-03 -0.4762400E-03
 -0.4801078E-03 -0.4839448E-03 -0.4877503E-03 -0.4915235E-03 -0.4952635E-03
 -0.4989696E-03 -0.5026407E-03 -0.5062760E-03 -0.5098742E-03 -0.5134345E-03
 -0.5169556E-03 -0.5204366E-03 -0.5238763E-03 -0.5272737E-03 -0.5306277E-03
 -0.5339371E-03 -0.5372009E-03 -0.5404181E-03 -0.5435877E-03 -0.5467089E-03
 -0.5497806E-03 -0.5528022E-03 -0.5557731E-03 -0.5586925E-03 -0.5615600E-03
 -0.5643751E-03 -0.5671375E-03 -0.5698469E-03 -0.5725032E-03 -0.5751063E-03
 -0.5776563E-03 -0.5801532E-03 -0.5825973E-03 -0.5849890E-03 -0.5873286E-03
 -0.5896166E-03 -0.5918537E-03 -0.5940406E-03 -0.5961779E-03 -0.5982665E-03
 -0.6003073E-03 -0.6023012E-03 -0.6042490E-03 -0.6061517E-03 -0.6080105E-03
 -0.6098262E-03 -0.6116000E-03 -0.6133329E-03 -0.6150260E-03 -0.6166804E-03
 -0.6182973E-03 -0.6198777E-03 -0.6214227E-03 -0.6229333E-03 -0.6244109E-03
 -0.6258564E-03 -0.6272708E-03 -0.6286553E-03 -0.6300107E-03 -0.6313383E-03
 -0.6326389E-03 -0.6339134E-03 -0.6351631E-03 -0.6363887E-03 -0.6375914E-03
 -0.6387719E-03 -0.6399312E-03 -0.6410704E-03 -0.6421902E-03 -0.6432914E-03
 -0.6443750E-03 -0.6454418E-03 -0.6464924E-03 -0.6475278E-03 -0.6485485E-03
 -0.6495554E-03 -0.6505491E-03 -0.6515300E-03 -0.6524989E-03 -0.6534563E-03
 -0.6544026E-03 -0.6553383E-03 -0.6562638E-03 -0.6571793E-03 -0.6580852E-03
 -0.6589817E-03 -0.6598688E-03 -0.6607466E-03 -0.6616152E-03 -0.6624746E-03
 -0.6633247E-03 -0.6641655E-03 -0.6649969E-03 -0.6658186E-03 -0.6666306E-03
 -0.6674326E-03 -0.6682245E-03 -0.6690060E-03 -0.6697768E-03 -0.6705369E-03
 -0.6712860E-03 -0.6720239E-03 -0.6727506E-03 -0.6734662E-03 -0.6741706E-03
 -0.6748640E-03 -0.6755465E-03 -0.6762185E-03 -0.6768804E-03 -0.6775324E-03
 -0.6781752E-03 -0.6788093E-03 -0.6794354E-03 -0.6800543E-03 -0.6806667E-03
 -0.6812736E-03 -0.6818760E-03 -0.6824749E-03 -0.6830714E-03 -0.6836670E-03
 -0.6842627E-03 -0.6848597E-03 -0.6854594E-03 -0.6860630E-03 -0.6866717E-03
 -0.6872867E-03 -0.6879092E-03 -0.6885403E-03 -0.6891809E-03 -0.6898320E-03
 -0.6904944E-03 -0.6911688E-03 -0.6918560E-03 -0.6925564E-03 -0.6932707E-03
 -0.6939990E-03 -0.6947417E-03 -0.6954987E-03 -0.6962700E-03 -0.6970554E-03
 -0.6978547E-03 -0.6986674E-03 -0.6994929E-03 -0.7003305E-03 -0.7011797E-03
 -0.7020395E-03 -0.7029092E-03 -0.7037880E-03 -0.7046749E-03 -0.7055693E-03
 -0.7064703E-03 -0.7073772E-03 -0.7082893E-03 -0.7092060E-03 -0.7101267E-03
 -0.7110510E-03 -0.7119784E-03 -0.7129088E-03 -0.7138419E-03 -0.7147779E-03
 -0.7157168E-03 -0.7166590E-03 -0.7176050E-03 -0.7185555E-03 -0.7195112E-03
 -0.7204732E-03 -0.7214425E-03 -0.7224206E-03 -0.7234087E-03 -0.7244083E-03
 -0.7254211E-03 -0.7264487E-03 -0.7274926E-03 -0.7285547E-03 -0.7296367E-03
 -0.7307404E-03 -0.7318675E-03 -0.7330198E-03 -0.7341990E-03 -0.7354066E-03
 -0.7366444E-03 -0.7379136E-03 -0.7392157E-03 -0.7405519E-03 -0.7419233E-03
 -0.7433306E-03 -0.7447747E-03 -0.7462559E-03 -0.7477746E-03 -0.7493309E-03
 -0.7509246E-03 -0.7525557E-03 -0.7542235E-03 -0.7559276E-03 -0.7576672E-03
 -0.7594413E-03 -0.7612491E-03 -0.7630892E-03 -0.7649604E-03 -0.7668613E-03
 -0.7687901E-03 -0.7707455E-03 -0.7727256E-03 -0.7747286E-03 -0.7767528E-03
 -0.7787962E-03 -0.7808571E-03 -0.7829336E-03 -0.7850237E-03 -0.7871260E-03
 -0.7892387E-03 -0.7913602E-03 -0.7934888E-03 -0.7956232E-03 -0.7977617E-03
 -0.7999031E-03 -0.8020459E-03 -0.8041890E-03 -0.8063311E-03 -0.8084710E-03
 -0.8106076E-03 -0.8127401E-03 -0.8148672E-03 -0.8169882E-03 -0.8191022E-03
 -0.8212083E-03 -0.8233058E-03 -0.8253939E-03 -0.8274718E-03 -0.8295388E-03
 -0.8315939E-03 -0.8336365E-03 -0.8356656E-03 -0.8376801E-03 -0.8396795E-03
 -0.8416626E-03 -0.8436287E-03 -0.8455766E-03 -0.8475055E-03 -0.8494143E-03
 -0.8513021E-03 -0.8531679E-03 -0.8550106E-03 -0.8568293E-03 -0.8586230E-03
 -0.8603906E-03 -0.8621314E-03 -0.8638441E-03 -0.8655282E-03 -0.8671826E-03
 -0.8688067E-03 -0.8703998E-03 -0.8719613E-03 -0.8734908E-03 -0.8749880E-03
 -0.8764525E-03 -0.8778844E-03 -0.8792836E-03 -0.8806503E-03 -0.8819847E-03
 -0.8832872E-03 -0.8845582E-03 -0.8857986E-03 -0.8870089E-03 -0.8881902E-03
 -0.8893433E-03 -0.8904693E-03 -0.8915696E-03 -0.8926454E-03 -0.8936982E-03
 -0.8947297E-03 -0.8957413E-03 -0.8967348E-03 -0.8977118E-03 -0.8986742E-03
 -0.8996240E-03 -0.9005626E-03 -0.9014923E-03 -0.9024148E-03 -0.9033319E-03
 -0.9042457E-03 -0.9051581E-03 -0.9060709E-03 -0.9069860E-03 -0.9079055E-03
 -0.9088313E-03 -0.9097651E-03 -0.9107092E-03 -0.9116653E-03 -0.9126351E-03
 -0.9136206E-03 -0.9146236E-03 -0.9156458E-03 -0.9166891E-03 -0.9177554E-03
 -0.9188464E-03 -0.9199639E-03 -0.9211098E-03 -0.9222858E-03 -0.9234936E-03
 -0.9247351E-03 -0.9260119E-03 -0.9273256E-03 -0.9286781E-03 -0.9300706E-03
 -0.9315051E-03 -0.9329826E-03 -0.9345047E-03 -0.9360728E-03 -0.9376879E-03
 -0.9393514E-03 -0.9410641E-03 -0.9428270E-03 -0.9446407E-03 -0.9465058E-03
 -0.9484228E-03 -0.9503916E-03 -0.9524125E-03 -0.9544852E-03 -0.9566094E-03
 -0.9587845E-03 -0.9610095E-03 -0.9632835E-03 -0.9656052E-03 -0.9679730E-03
 -0.9703852E-03 -0.9728398E-03 -0.9753344E-03 -0.9778668E-03 -0.9804342E-03
 -0.9830339E-03 -0.9856627E-03 -0.9883174E-03 -0.9909947E-03 -0.9936910E-03
 -0.9964027E-03 -0.9991260E-03 -0.1001857E-02 -0.1004592E-02 -0.1007326E-02
 -0.1010056E-02 -0.1012777E-02 -0.1015486E-02 -0.1018177E-02 -0.1020848E-02
 -0.1023493E-02 -0.1026109E-02 -0.1028692E-02 -0.1031238E-02 -0.1033743E-02
 -0.1036203E-02 -0.1038615E-02 -0.1040975E-02 -0.1043280E-02 -0.1045527E-02
 -0.1047712E-02 -0.1049833E-02 -0.1051886E-02 -0.1053869E-02 -0.1055779E-02
 -0.1057614E-02 -0.1059372E-02 -0.1061051E-02 -0.1062648E-02 -0.1064163E-02
 -0.1065592E-02 -0.1066936E-02 -0.1068193E-02 -0.1069361E-02 -0.1070441E-02
 -0.1071430E-02 -0.1072328E-02 -0.1073136E-02 -0.1073853E-02 -0.1074479E-02
 -0.1075013E-02 -0.1075457E-02 -0.1075812E-02 -0.1076077E-02 -0.1076253E-02
 -0.1076343E-02 -0.1076348E-02 -0.1076268E-02 -0.1076107E-02 -0.1075865E-02
 -0.1075547E-02 -0.1075153E-02 -0.1074687E-02 -0.1074153E-02 -0.1073552E-02
 -0.1072889E-02 -0.1072168E-02 -0.1071393E-02 -0.1070568E-02 -0.1069697E-02
 -0.1068786E-02 -0.1067839E-02 -0.1066862E-02 -0.1065859E-02 -0.1064837E-02
 -0.1063801E-02 -0.1062758E-02 -0.1061712E-02 -0.1060671E-02 -0.1059641E-02
 -0.1058628E-02 -0.1057639E-02 -0.1056680E-02 -0.1055758E-02 -0.1054880E-02
 -0.1054052E-02 -0.1053282E-02 -0.1052575E-02 -0.1051939E-02 -0.1051379E-02
 -0.1050903E-02 -0.1050516E-02 -0.1050225E-02 -0.1050035E-02 -0.1049953E-02
 -0.1049984E-02 -0.1050133E-02 -0.1050405E-02 -0.1050807E-02 -0.1051341E-02
 -0.1052013E-02 -0.1052827E-02 -0.1053786E-02 -0.1054894E-02 -0.1056153E-02
 -0.1057567E-02 -0.1059137E-02 -0.1060865E-02 -0.1062753E-02 -0.1064802E-02
 -0.1067013E-02 -0.1069386E-02 -0.1071920E-02 -0.1074617E-02 -0.1077474E-02
 -0.1080490E-02 -0.1083665E-02 -0.1086996E-02 -0.1090479E-02 -0.1094113E-02
 -0.1097895E-02 -0.1101819E-02 -0.1105883E-02 -0.1110082E-02 -0.1114411E-02
 -0.1118865E-02 -0.1123438E-02 -0.1128126E-02 -0.1132922E-02 -0.1137819E-02
 -0.1142811E-02 -0.1147891E-02 -0.1153052E-02 -0.1158286E-02 -0.1163585E-02
 -0.1168940E-02 -0.1174343E-02 -0.1179785E-02 -0.1185257E-02 -0.1190751E-02
 -0.1196255E-02 -0.1201762E-02 -0.1207260E-02 -0.1212741E-02 -0.1218194E-02
 -0.1223609E-02 -0.1228975E-02 -0.1234282E-02 -0.1239519E-02 -0.1244676E-02
 -0.1249742E-02 -0.1254706E-02 -0.1259558E-02 -0.1264286E-02 -0.1268880E-02
 -0.1273330E-02 -0.1277625E-02 -0.1281756E-02 -0.1285714E-02 -0.1289487E-02
 -0.1293068E-02 -0.1296447E-02 -0.1299616E-02 -0.1302566E-02 -0.1305289E-02
 -0.1307779E-02 -0.1310027E-02 -0.1312027E-02 -0.1313773E-02 -0.1315260E-02
 -0.1316483E-02 -0.1317437E-02 -0.1318118E-02 -0.1318525E-02 -0.1318655E-02
 -0.1318505E-02 -0.1318075E-02 -0.1317364E-02 -0.1316373E-02 -0.1315102E-02
 -0.1313553E-02 -0.1311728E-02 -0.1309630E-02 -0.1307262E-02 -0.1304627E-02
 -0.1301732E-02 -0.1298582E-02 -0.1295181E-02 -0.1291539E-02 -0.1287661E-02
 -0.1283556E-02 -0.1279232E-02 -0.1274699E-02 -0.1269965E-02 -0.1265042E-02
 -0.1259940E-02 -0.1254669E-02 -0.1249241E-02 -0.1243669E-02 -0.1237964E-02
 -0.1232140E-02 -0.1226211E-02 -0.1220189E-02 -0.1214089E-02 -0.1207926E-02
 -0.1201715E-02 -0.1195470E-02 -0.1189208E-02 -0.1182943E-02 -0.1176692E-02
 -0.1170470E-02 -0.1164293E-02 -0.1158178E-02 -0.1152141E-02 -0.1146197E-02
 -0.1140363E-02 -0.1134656E-02 -0.1129091E-02 -0.1123685E-02 -0.1118453E-02
 -0.1113412E-02 -0.1108576E-02 -0.1103961E-02 -0.1099582E-02 -0.1095452E-02
 -0.1091587E-02 -0.1087999E-02 -0.1084700E-02 -0.1081705E-02 -0.1079023E-02
 -0.1076667E-02 -0.1074647E-02 -0.1072972E-02 -0.1071652E-02 -0.1070696E-02
 -0.1070111E-02 -0.1069903E-02 -0.1070080E-02 -0.1070644E-02 -0.1071602E-02
 -0.1072956E-02 -0.1074709E-02 -0.1076861E-02 -0.1079414E-02 -0.1082365E-02
 -0.1085715E-02 -0.1089460E-02 -0.1093598E-02 -0.1098123E-02 -0.1103030E-02
 -0.1108314E-02 -0.1113966E-02 -0.1119980E-02 -0.1126345E-02 -0.1133051E-02
 -0.1140088E-02 -0.1147443E-02 -0.1155104E-02 -0.1163057E-02 -0.1171287E-02
 -0.1179779E-02 -0.1188517E-02 -0.1197483E-02 -0.1206661E-02 -0.1216032E-02
 -0.1225577E-02 -0.1235276E-02 -0.1245110E-02 -0.1255057E-02 -0.1265096E-02
 -0.1275205E-02 -0.1285361E-02 -0.1295542E-02 -0.1305723E-02 -0.1315882E-02
 -0.1325995E-02 -0.1336036E-02 -0.1345981E-02 -0.1355805E-02 -0.1365484E-02
 -0.1374992E-02 -0.1384304E-02 -0.1393394E-02 -0.1402238E-02 -0.1410809E-02
 -0.1419084E-02 -0.1427035E-02 -0.1434639E-02 -0.1441870E-02 -0.1448703E-02
 -0.1455115E-02 -0.1461080E-02 -0.1466575E-02 -0.1471577E-02 -0.1476062E-02
 -0.1480008E-02 -0.1483393E-02 -0.1486196E-02 -0.1488396E-02 -0.1489972E-02
 -0.1490906E-02 -0.1491178E-02 -0.1490770E-02 -0.1489665E-02 -0.1487846E-02
 -0.1485297E-02 -0.1482004E-02 -0.1477952E-02 -0.1473129E-02 -0.1467522E-02
 -0.1461121E-02 -0.1453915E-02 -0.1445897E-02 -0.1437058E-02 -0.1427391E-02
 -0.1416891E-02 -0.1405555E-02 -0.1393378E-02 -0.1380359E-02 -0.1366496E-02
 -0.1351790E-02 -0.1336242E-02 -0.1319855E-02 -0.1302631E-02 -0.1284578E-02
 -0.1265699E-02 -0.1246004E-02 -0.1225500E-02 -0.1204197E-02 -0.1182106E-02
 -0.1159239E-02 -0.1135609E-02 -0.1111231E-02 -0.1086118E-02 -0.1060289E-02
 -0.1033759E-02 -0.1006546E-02 -0.9786700E-03 -0.9501504E-03 -0.9210082E-03
 -0.8912648E-03 -0.8609430E-03 -0.8300660E-03 -0.7986578E-03 -0.7667434E-03