  0.1425000      -12345.00      -12345.00      0.1000000E+10  -12345.00    
  -30.00000      -12345.00       0.000000      -12345.00      -12345.00    
  -12345.00      -12345.00      -12345.00      -12345.00      -12345.00    
  -12345.00      -12345.00      -12345.00      -12345.00      -12345.00    
  -12345.00      -12345.00      -12345.00      -12345.00      -12345.00    
  -12345.00      -12345.00      -12345.00      -12345.00      -12345.00    
  -12345.00      -11.98750      -76.84220       575.0000       0.000000    
  -13.82000      -67.25000      -12345.00       647.1000      -12345.00    
   20.00000       34.00000       500.0000      -12345.00      -12345.00    
  -12345.00      -12345.00      -12345.00      -12345.00      -12345.00    
  -12345.00      -12345.00      -12345.00      -12345.00      -12345.00    
  -12345.00      -12345.00       0.000000       90.00000      -12345.00    
  -12345.00      -12345.00      -12345.00      -12345.00      -12345.00    
  -12345.00      -12345.00      -12345.00      -12345.00      -12345.00    
      1994       160         0        33        45
       399         6    -12345    -12345     25600
    -12345    -12345    -12345    -12345    -12345
         1         6        11    -12345    -12345
    -12345    -12345        40    -12345    -12345
    -12345    -12345    -12345    -12345    -12345
    -12345    -12345    -12345    -12345    -12345
         1         1         1         1    -12345
NNA     060994A         
S3      -12345  -12345  
-12345  -12345  -12345  
-12345  -12345  -12345  
-12345  -12345  -12345  
-12345  -12345  SY      
SEM7.0.0Horse   MXN     
II      -12345  -12345  
   0.000000       0.000000       0.000000       0.000000       0.000000    
   0.000000       0.000000       0.000000       0.000000       0.000000    
   0.000000       0.000000       0.000000       0.000000       0.000000    
   0.000000       0.000000       0.000000       0.000000       0.000000    
   0.000000       0.000000       0.000000       0.000000       0.000000    
   0.000000       0.000000       0.000000       0.000000       0.000000    
   0.000000       0.000000       0.000000       0.000000       0.000000    
   0.000000       0.000000       0.000000       0.000000       0.000000    
   0.000000       0.000000       0.000000       0.000000       0.000000    
   0.000000       0.000000       0.000000       0.000000       0.000000    
   0.000000       0.000000       0.000000       0.000000       0.000000    
   0.000000       0.000000       0.000000       0.000000       0.000000    
   0.000000       0.000000       0.000000       0.000000       0.000000    
   0.000000       0.000000       0.000000       0.000000      0.1189301E-32
  0.4059133E-32  0.8958255E-32  0.1651615E-31  0.2535251E-31  0.2778587E-31
  0.1977021E-31 -0.5984472E-32 -0.5285376E-31 -0.1231702E-30 -0.2068644E-30
 -0.2961675E-30 -0.3759229E-30 -0.4250148E-30 -0.3953240E-30 -0.2326369E-30
  0.1086401E-30  0.6355594E-30  0.1332845E-29  0.1705111E-29  0.1440010E-29
  0.2455009E-30 -0.2171141E-29 -0.4635102E-29 -0.7131844E-29 -0.6528660E-29
 -0.1067835E-29  0.1142659E-28  0.3155606E-28  0.6013557E-28  0.9664112E-28
  0.1404711E-27  0.1876464E-27  0.2307334E-27  0.2562704E-27  0.2483970E-27
  0.1920179E-27  0.7178723E-28 -0.1259500E-27 -0.4062216E-27 -0.7631914E-27
 -0.1177245E-26 -0.1607981E-26 -0.1993020E-26 -0.2248527E-26 -0.2273303E-26
 -0.1956976E-26 -0.1191132E-26  0.1114492E-27  0.1996242E-26  0.4442014E-26
  0.7337044E-26  0.1045885E-25  0.1345909E-25  0.1586330E-25  0.1708697E-25
  0.1647013E-25  0.1333874E-25  0.7088315E-26 -0.2709804E-26 -0.1618683E-25
 -0.3304990E-25 -0.5246254E-25 -0.7295119E-25 -0.9235847E-25 -0.1078627E-24
 -0.1160846E-24 -0.1132961E-24 -0.9574087E-25 -0.6006412E-25 -0.3837829E-26
  0.7384784E-25  0.1717729E-24  0.2860165E-24  0.4095011E-24  0.5317360E-24
  0.6388472E-24  0.7139741E-24  0.7381030E-24  0.6913753E-24  0.5548787E-24
  0.3128771E-24 -0.4461407E-25 -0.5190638E-24 -0.1100688E-23 -0.1766008E-23
 -0.2476018E-23 -0.3175307E-23 -0.3792470E-23 -0.4242131E-23 -0.4428824E-23
 -0.4252894E-23 -0.3618427E-23 -0.2443051E-23 -0.6692501E-24  0.1723386E-23
  0.4705797E-23  0.8187995E-23  0.1200973E-22  0.1593465E-22  0.1964931E-22
  0.2276852E-22  0.2484805E-22  0.2540586E-22  0.2395204E-22  0.2002760E-22
  0.1325100E-22  0.3370962E-23 -0.9677387E-23 -0.2571641E-22 -0.4427459E-22
 -0.6454519E-22 -0.8536098E-22 -0.1051911E-21 -0.1221661E-21 -0.1341371E-21
 -0.1387720E-21 -0.1336925E-21 -0.1166501E-21 -0.8573781E-22 -0.3963132E-22
  0.2215410E-22  0.9900515E-22  0.1889716E-21  0.2885699E-21  0.3926572E-21
  0.4944013E-21  0.5853757E-21  0.6558033E-21  0.6949669E-21  0.6917976E-21
  0.6356398E-21  0.5171772E-21  0.3294890E-21  0.6918641E-22 -0.2624396E-21
 -0.6583440E-21 -0.1104829E-20 -0.1580933E-20 -0.2058230E-20 -0.2501148E-20
 -0.2867911E-20 -0.3112197E-20 -0.3185538E-20 -0.3040478E-20 -0.2634418E-20
 -0.1934029E-20 -0.9200386E-21  0.4079077E-21  0.2026621E-20  0.3885422E-20
  0.5903308E-20  0.7967727E-20  0.9935420E-20  0.1163577E-19  0.1287699E-19
  0.1345537E-19  0.1316757E-19  0.1182591E-19  0.9275941E-20  0.5415911E-20
  0.2168129E-21 -0.6258121E-20 -0.1383610E-19 -0.2222138E-19 -0.3098762E-19
 -0.3957799E-19 -0.4731463E-19 -0.5341902E-19 -0.5704435E-19 -0.5732018E-19
 -0.5340923E-19 -0.4457478E-19 -0.3025668E-19 -0.1015239E-19  0.1570139E-19
  0.4685191E-19  0.8236483E-19  0.1207769E-18  0.1600740E-18  0.1977018E-18
  0.2306157E-18  0.2553742E-18  0.2682808E-18  0.2655741E-18  0.2436643E-18
  0.1994112E-18  0.1304345E-18  0.3544155E-19 -0.8544184E-19 -0.2303611E-18
 -0.3954654E-18 -0.5747094E-18 -0.7597514E-18 -0.9399742E-18 -0.1102654E-17
 -0.1233293E-17 -0.1316139E-17 -0.1334886E-17 -0.1273555E-17 -0.1117548E-17
 -0.8548299E-18 -0.4772023E-18  0.1838557E-19  0.6285643E-18  0.1342391E-17
  0.2140408E-17  0.2994001E-17  0.3865170E-17  0.4706784E-17  0.5463421E-17
  0.6072837E-17  0.6468121E-17  0.6580528E-17  0.6342971E-17  0.5694107E-17
  0.4582880E-17  0.2973380E-17  0.8498082E-18 -0.1778719E-17 -0.4873803E-17
 -0.8364134E-17 -0.1214296E-16 -0.1606698E-16 -0.1995692E-16 -0.2360015E-16
 -0.2675552E-16 -0.2916056E-16 -0.3054105E-16 -0.3062301E-16 -0.2914671E-16
 -0.2588258E-16 -0.2064832E-16 -0.1332674E-16 -0.3883352E-17  0.7616938E-17
  0.2099527E-16  0.3594735E-16  0.5203607E-16  0.6868948E-16  0.8520482E-16
  0.1007597E-15  0.1144306E-15  0.1252199E-15  0.1320902E-15  0.1340067E-15
  0.1299864E-15  0.1191526E-15  0.1007937E-15  0.7442404E-16  0.3984321E-16
 -0.2807060E-17 -0.5299322E-16 -0.1097501E-15 -0.1716543E-15 -0.2368138E-15
 -0.3028772E-15 -0.3670650E-15 -0.4262245E-15 -0.4769095E-15 -0.5154851E-15
 -0.5382578E-15 -0.5416257E-15 -0.5222493E-15 -0.4772356E-15 -0.4043307E-15
 -0.3021136E-15 -0.1701830E-15 -0.9328315E-17  0.1783243E-15  0.3892015E-15
  0.6182159E-15  0.8587539E-15  0.1102723E-14  0.1340671E-14  0.1561970E-14
  0.1755084E-14  0.1907905E-14  0.2008158E-14  0.2043873E-14  0.2003905E-14
  0.1878501E-14  0.1659872E-14  0.1342784E-14  0.9251168E-15  0.4083720E-15
 -0.2018813E-15 -0.8956706E-15 -0.1658406E-14 -0.2470817E-14 -0.3309063E-14
 -0.4145029E-14 -0.4946827E-14 -0.5679501E-14 -0.6305943E-14 -0.6787998E-14
 -0.7087756E-14 -0.7168993E-14 -0.6998725E-14 -0.6548845E-14 -0.5797772E-14
 -0.4732067E-14 -0.3347950E-14 -0.1652647E-14  0.3344987E-15  0.2581219E-14
  0.5041878E-14  0.7657465E-14  0.1035605E-13  0.1305375E-13  0.1565626E-13
  0.1806087E-13  0.2015907E-13  0.2183960E-13  0.2299202E-13  0.2351052E-13
  0.2329820E-13  0.2227129E-13  0.2036359E-13  0.1753069E-13  0.1375397E-13
  0.9044096E-14  0.3444035E-14 -0.2968796E-14 -0.1008124E-13 -0.1774415E-13
 -0.2577335E-13 -0.3395177E-13 -0.4203292E-13 -0.4974571E-13 -0.5680048E-13
 -0.6289632E-13 -0.6772949E-13 -0.7100272E-13 -0.7243534E-13 -0.7177381E-13
 -0.6880249E-13 -0.6335428E-13 -0.5532081E-13 -0.4466176E-13 -0.3141300E-13
 -0.1569324E-13  0.2291326E-14  0.2224456E-13  0.4378032E-13  0.6642525E-13
  0.8962431E-13  0.1127494E-12  0.1351107E-12  0.1559713E-12  0.1745641E-12
  0.1901112E-12  0.2018456E-12  0.2090344E-12  0.2110030E-12  0.2071594E-12
  0.1970196E-12  0.1802301E-12  0.1565906E-12  0.1260733E-12  0.8883893E-13
  0.4524995E-13 -0.4122027E-14 -0.5849294E-13 -0.1168691E-12 -0.1780554E-12
 -0.2406703E-12 -0.3031662E-12 -0.3638569E-12 -0.4209498E-12 -0.4725848E-12
 -0.5168766E-12 -0.5519628E-12 -0.5760531E-12 -0.5874828E-12 -0.5847649E-12
 -0.5666440E-12 -0.5321468E-12 -0.4806305E-12 -0.4118260E-12 -0.3258752E-12
 -0.2233613E-12 -0.1053305E-12  0.2669668E-13  0.1707236E-12  0.3242880E-12
  0.4844841E-12  0.6479970E-12  0.8111489E-12  0.9699587E-12  0.1120211E-11
  0.1257539E-11  0.1377511E-11  0.1475733E-11  0.1547952E-11  0.1590163E-11
  0.1598725E-11  0.1570470E-11  0.1502813E-11  0.1393854E-11  0.1242480E-11
  0.1048445E-11  0.8124492E-12  0.5361925E-12  0.2224173E-12 -0.1250701E-12
 -0.5014012E-12 -0.9006680E-12 -0.1315972E-11 -0.1739494E-11 -0.2162594E-11
 -0.2575930E-11 -0.2969607E-11 -0.3333343E-11 -0.3656654E-11 -0.3929070E-11
 -0.4140346E-11 -0.4280704E-11 -0.4341069E-11 -0.4313315E-11 -0.4190509E-11
 -0.3967148E-11 -0.3639382E-11 -0.3205224E-11 -0.2664733E-11 -0.2020176E-11
 -0.1276147E-11 -0.4396585E-12  0.4798157E-12  0.1470340E-11  0.2517572E-11
  0.3604863E-11  0.4713415E-11  0.5822493E-11  0.6909685E-11  0.7951228E-11
  0.8922371E-11  0.9797783E-11  0.1055202E-10  0.1116000E-10  0.1159755E-10
  0.1184190E-10  0.1187227E-10  0.1167041E-10  0.1122113E-10  0.1051282E-10
  0.9537964E-11  0.8293555E-11  0.6781497E-11  0.5008932E-11  0.2988483E-11
  0.7384223E-12 -0.1717256E-11 -0.4348870E-11 -0.7121182E-11 -0.9993653E-11
 -0.1292079E-10 -0.1585262E-10 -0.1873530E-10 -0.2151175E-10 -0.2412248E-10
 -0.2650649E-10 -0.2860222E-10 -0.3034858E-10 -0.3168606E-10 -0.3255787E-10
 -0.3291115E-10 -0.3269806E-10 -0.3187705E-10 -0.3041394E-10 -0.2828304E-10
 -0.2546818E-10 -0.2196364E-10 -0.1777501E-10 -0.1291985E-10 -0.7428351E-11
 -0.1343681E-11  0.5277758E-11  0.1236626E-10  0.1983895E-10  0.2760017E-10
  0.3554199E-10  0.4354504E-10  0.5147952E-10  0.5920639E-10  0.6657890E-10
  0.7344423E-10  0.7964544E-10  0.8502358E-10  0.8941993E-10  0.9267857E-10
  0.9464900E-10  0.9518895E-10  0.9416723E-10  0.9146676E-10  0.8698760E-10
  0.8065000E-10  0.7239740E-10  0.6219935E-10  0.5005435E-10  0.3599243E-10
  0.2007754E-10  0.2409620E-11 -0.1687372E-10 -0.3759597E-10 -0.5954091E-10
 -0.8245250E-10 -0.1060353E-09 -0.1299557E-09 -0.1538437E-09 -0.1772957E-09
 -0.1998784E-09 -0.2211324E-09 -0.2405786E-09 -0.2577237E-09 -0.2720675E-09
 -0.2831110E-09 -0.2903650E-09 -0.2933595E-09 -0.2916540E-09 -0.2848479E-09
 -0.2725914E-09 -0.2545965E-09 -0.2306481E-09 -0.2006149E-09 -0.1644596E-09
 -0.1222484E-09 -0.7415977E-10 -0.2049176E-10  0.3833216E-10  0.1017589E-09
  0.1691039E-09  0.2395513E-09  0.3121566E-09  0.3858519E-09  0.4594546E-09
  0.5316782E-09  0.6011462E-09  0.6664096E-09  0.7259670E-09  0.7782867E-09
  0.8218327E-09  0.8550924E-09  0.8766057E-09  0.8849971E-09  0.8790072E-09
  0.8575260E-09  0.8196259E-09  0.7645934E-09  0.6919604E-09  0.6015325E-09
  0.4934151E-09  0.3680357E-09  0.2261619E-09  0.6891493E-10 -0.1022233E-09
 -0.2854081E-09 -0.4784380E-09 -0.6787662E-09 -0.8835207E-09 -0.1089531E-08
 -0.1293364E-08 -0.1491364E-08 -0.1679702E-08 -0.1854436E-08 -0.2011567E-08
 -0.2147108E-08 -0.2257162E-08 -0.2337986E-08 -0.2386082E-08 -0.2398262E-08
 -0.2371738E-08 -0.2304191E-08 -0.2193844E-08 -0.2039535E-08 -0.1840770E-08
 -0.1597783E-08 -0.1311575E-08 -0.9839478E-09 -0.6175241E-09 -0.2157529E-09
  0.2170970E-09  0.6759600E-09  0.1155012E-08  0.1647722E-08  0.2146925E-08
  0.2644902E-08  0.3133479E-08  0.3604143E-08  0.4048160E-08  0.4456715E-08
  0.4821050E-08  0.5132619E-08  0.5383240E-08  0.5565251E-08  0.5671668E-08
  0.5696336E-08  0.5634071E-08  0.5480806E-08  0.5233707E-08  0.4891288E-08
  0.4453506E-08  0.3921829E-08  0.3299295E-08  0.2590536E-08  0.1801786E-08
  0.9408558E-09  0.1708702E-10 -0.9587270E-09 -0.1974441E-08 -0.3016689E-08
 -0.4071037E-08 -0.5122162E-08 -0.6154050E-08 -0.7150220E-08 -0.8093953E-08
 -0.8968548E-08 -0.9757573E-08 -0.1044514E-07 -0.1101615E-07 -0.1145659E-07
 -0.1175377E-07 -0.1189657E-07 -0.1187566E-07 -0.1168376E-07 -0.1131576E-07
 -0.1076897E-07 -0.1004315E-07 -0.9140690E-08 -0.8066655E-08 -0.6828785E-08
 -0.5437510E-08 -0.3905882E-08 -0.2249486E-08 -0.4863053E-09  0.1363453E-08
  0.3277571E-08  0.5232068E-08  0.7201482E-08  0.9159181E-08  0.1107770E-07
  0.1292910E-07  0.1468536E-07  0.1631873E-07  0.1780218E-07  0.1910975E-07
  0.2021698E-07  0.2110127E-07  0.2174227E-07  0.2212223E-07  0.2222629E-07
  0.2204281E-07  0.2156363E-07  0.2078425E-07  0.1970401E-07  0.1832626E-07
  0.1665836E-07  0.1471176E-07  0.1250195E-07  0.1004835E-07  0.7374212E-08
  0.4506380E-08  0.1475065E-08 -0.1686458E-08 -0.4942198E-08 -0.8253839E-08
 -0.1158118E-07 -0.1488257E-07 -0.1811545E-07 -0.2123685E-07 -0.2420392E-07
 -0.2697450E-07 -0.2950764E-07 -0.3176421E-07 -0.3370740E-07 -0.3530326E-07
 -0.3652120E-07 -0.3733449E-07 -0.3772065E-07 -0.3766189E-07 -0.3714542E-07
 -0.3616377E-07 -0.3471500E-07 -0.3280287E-07 -0.3043697E-07 -0.2763270E-07
 -0.2441126E-07 -0.2079954E-07 -0.1682991E-07 -0.1253997E-07 -0.7972234E-08
 -0.3173691E-08  0.1804620E-08  0.6908158E-08  0.1207946E-07  0.1725877E-07
  0.2238473E-07  0.2739506E-07  0.3222733E-07  0.3681971E-07  0.4111172E-07
  0.4504503E-07  0.4856420E-07  0.5161743E-07  0.5415728E-07  0.5614136E-07
  0.5753291E-07  0.5830142E-07  0.5842315E-07  0.5788149E-07  0.5666742E-07
  0.5477970E-07  0.5222509E-07  0.4901840E-07  0.4518254E-07  0.4074831E-07
  0.3575428E-07  0.3024640E-07  0.2427763E-07  0.1790739E-07  0.1120100E-07
  0.4228946E-08 -0.2933842E-08 -0.1020885E-07 -0.1751486E-07 -0.2476890E-07
 -0.3188725E-07 -0.3878640E-07 -0.4538411E-07 -0.5160039E-07 -0.5735858E-07
 -0.6258627E-07 -0.6721623E-07 -0.7118738E-07 -0.7444551E-07 -0.7694412E-07
 -0.7864502E-07 -0.7951893E-07 -0.7954590E-07 -0.7871569E-07 -0.7702799E-07
 -0.7449247E-07 -0.7112880E-07 -0.6696651E-07 -0.6204466E-07 -0.5641144E-07
 -0.5012370E-07 -0.4324621E-07 -0.3585102E-07 -0.2801653E-07 -0.1982661E-07
 -0.1136956E-07 -0.2737079E-08  0.5976881E-08  0.1467725E-07  0.2326900E-07
  0.3165832E-07  0.3975376E-07  0.4746736E-07  0.5471570E-07  0.6142096E-07
  0.6751181E-07  0.7292428E-07  0.7760251E-07  0.8149942E-07  0.8457717E-07
  0.8680762E-07  0.8817257E-07  0.8866387E-07  0.8828344E-07  0.8704315E-07
  0.8496450E-07  0.8207828E-07  0.7842401E-07  0.7404931E-07  0.6900923E-07
  0.6336535E-07  0.5718492E-07  0.5053990E-07  0.4350595E-07  0.3616137E-07
  0.2858609E-07  0.2086055E-07  0.1306469E-07  0.5276954E-08 -0.2426719E-08
 -0.9973754E-08 -0.1729578E-07 -0.2432940E-07 -0.3101678E-07 -0.3730625E-07
 -0.4315272E-07 -0.4851795E-07 -0.5337084E-07 -0.5768740E-07 -0.6145081E-07
 -0.6465123E-07 -0.6728552E-07 -0.6935691E-07 -0.7087455E-07 -0.7185298E-07
 -0.7231152E-07 -0.7227364E-07 -0.7176624E-07 -0.7081896E-07 -0.6946339E-07
 -0.6773244E-07 -0.6565951E-07 -0.6327791E-07 -0.6062018E-07 -0.5771751E-07
 -0.5459927E-07 -0.5129252E-07 -0.4782177E-07 -0.4420860E-07 -0.4047160E-07
 -0.3662630E-07 -0.3268517E-07 -0.2865779E-07 -0.2455107E-07 -0.2036954E-07
 -0.1611575E-07 -0.1179071E-07 -0.7394388E-08 -0.2926267E-08  0.1614098E-08
  0.6226497E-08  0.1090949E-07  0.1565983E-07  0.2047196E-07  0.2533750E-07
  0.3024486E-07  0.3517884E-07  0.4012042E-07  0.4504655E-07  0.4993010E-07
  0.5473985E-07  0.5944066E-07  0.6399372E-07  0.6835693E-07  0.7248526E-07
  0.7633142E-07  0.7984646E-07  0.8298045E-07  0.8568335E-07  0.8790577E-07
  0.8959989E-07  0.9072036E-07  0.9122513E-07  0.9107644E-07  0.9024161E-07
  0.8869380E-07  0.8641280E-07  0.8338561E-07  0.7960708E-07  0.7508019E-07
  0.6981650E-07  0.6383623E-07  0.5716830E-07  0.4985030E-07  0.4192809E-07
  0.3345553E-07  0.2449386E-07  0.1511107E-07  0.5381027E-08 -0.4617364E-08
 -0.1480121E-07 -0.2508475E-07 -0.3538047E-07 -0.4560041E-07 -0.5565729E-07
 -0.6546591E-07 -0.7494426E-07 -0.8401482E-07 -0.9260565E-07 -0.1006516E-06
 -0.1080950E-06 -0.1148870E-06 -0.1209878E-06 -0.1263680E-06 -0.1310082E-06
 -0.1349001E-06 -0.1380461E-06 -0.1404599E-06 -0.1421659E-06 -0.1431991E-06
 -0.1436048E-06 -0.1434376E-06 -0.1427614E-06 -0.1416480E-06 -0.1401763E-06
 -0.1384317E-06 -0.1365047E-06 -0.1344900E-06 -0.1324851E-06 -0.1305897E-06
 -0.1289041E-06 -0.1275286E-06 -0.1265622E-06 -0.1261017E-06 -0.1262411E-06
 -0.1270705E-06 -0.1286759E-06 -0.1311382E-06 -0.1345335E-06 -0.1389319E-06
 -0.1443986E-06 -0.1509926E-06 -0.1587680E-06 -0.1677733E-06 -0.1780525E-06
 -0.1896451E-06 -0.2025868E-06 -0.2169106E-06 -0.2326466E-06 -0.2498234E-06
 -0.2684690E-06 -0.2886110E-06 -0.3102783E-06 -0.3335009E-06 -0.3583114E-06
 -0.3847455E-06 -0.4128426E-06 -0.4426466E-06 -0.4742058E-06 -0.5075745E-06
 -0.5428118E-06 -0.5799834E-06 -0.6191603E-06 -0.6604201E-06 -0.7038459E-06
 -0.7495271E-06 -0.7975582E-06 -0.8480395E-06 -0.9010758E-06 -0.9567764E-06
 -0.1015255E-05 -0.1076627E-05 -0.1141012E-05 -0.1208533E-05 -0.1279311E-05
 -0.1353471E-05 -0.1431137E-05 -0.1512433E-05 -0.1597484E-05 -0.1686411E-05
 -0.1779336E-05 -0.1876379E-05 -0.1977656E-05 -0.2083285E-05 -0.2193379E-05
 -0.2308049E-05 -0.2427405E-05 -0.2551558E-05 -0.2680613E-05 -0.2814678E-05
 -0.2953860E-05 -0.3098267E-05 -0.3248007E-05 -0.3403191E-05 -0.3563932E-05
 -0.3730348E-05 -0.3902560E-05 -0.4080697E-05 -0.4264891E-05 -0.4455286E-05
 -0.4652032E-05 -0.4855289E-05 -0.5065227E-05 -0.5282030E-05 -0.5505890E-05
 -0.5737018E-05 -0.5975634E-05 -0.6221974E-05 -0.6476293E-05 -0.6738856E-05
 -0.7009951E-05 -0.7289878E-05 -0.7578956E-05 -0.7877521E-05 -0.8185926E-05
 -0.8504545E-05 -0.8833766E-05 -0.9173990E-05 -0.9525643E-05 -0.9889161E-05
 -0.1026500E-04 -0.1065362E-04 -0.1105551E-04 -0.1147116E-04 -0.1190108E-04
 -0.1234578E-04 -0.1280580E-04 -0.1328166E-04 -0.1377391E-04 -0.1428308E-04
 -0.1480974E-04 -0.1535444E-04 -0.1591772E-04 -0.1650013E-04 -0.1710223E-04
 -0.1772457E-04 -0.1836767E-04 -0.1903208E-04 -0.1971832E-04 -0.2042691E-04
 -0.2115835E-04 -0.2191313E-04 -0.2269174E-04 -0.2349465E-04 -0.2432230E-04
 -0.2517514E-04 -0.2605359E-04 -0.2695807E-04 -0.2788895E-04 -0.2884664E-04
 -0.2983148E-04 -0.3084383E-04 -0.3188402E-04 -0.3295238E-04 -0.3404922E-04
 -0.3517485E-04 -0.3632955E-04 -0.3751362E-04 -0.3872731E-04 -0.3997091E-04
 -0.4124469E-04 -0.4254891E-04 -0.4388383E-04 -0.4524972E-04 -0.4664684E-04
 -0.4807545E-04 -0.4953584E-04 -0.5102830E-04 -0.5255308E-04 -0.5411051E-04
 -0.5570090E-04 -0.5732455E-04 -0.5898178E-04 -0.6067296E-04 -0.6239843E-04
 -0.6415856E-04 -0.6595373E-04 -0.6778434E-04 -0.6965080E-04 -0.7155351E-04
 -0.7349293E-04 -0.7546947E-04 -0.7748359E-04 -0.7953576E-04 -0.8162644E-04
 -0.8375611E-04 -0.8592524E-04 -0.8813431E-04 -0.9038382E-04 -0.9267423E-04
 -0.9500603E-04 -0.9737969E-04 -0.9979568E-04 -0.1022545E-03 -0.1047565E-03
 -0.1073021E-03 -0.1098918E-03 -0.1125260E-03 -0.1152050E-03 -0.1179292E-03
 -0.1206989E-03 -0.1235144E-03 -0.1263760E-03 -0.1292838E-03 -0.1322382E-03
 -0.1352392E-03 -0.1382870E-03 -0.1413817E-03 -0.1445233E-03 -0.1477118E-03
 -0.1509472E-03 -0.1542295E-03 -0.1575585E-03 -0.1609340E-03 -0.1643559E-03
 -0.1678240E-03 -0.1713379E-03 -0.1748975E-03 -0.1785022E-03 -0.1821518E-03
 -0.1858458E-03 -0.1895838E-03 -0.1933653E-03 -0.1971898E-03 -0.2010568E-03
 -0.2049658E-03 -0.2089161E-03 -0.2129073E-03 -0.2169388E-03 -0.2210099E-03
 -0.2251202E-03 -0.2292690E-03 -0.2334557E-03 -0.2376797E-03 -0.2419405E-03
 -0.2462375E-03 -0.2505701E-03 -0.2549378E-03 -0.2593400E-03 -0.2637762E-03
 -0.2682459E-03 -0.2727487E-03 -0.2772840E-03 -0.2818516E-03 -0.2864508E-03
 -0.2910814E-03 -0.2957429E-03 -0.3004351E-03 -0.3051574E-03 -0.3099096E-03
 -0.3146913E-03 -0.3195021E-03 -0.3243416E-03 -0.3292096E-03 -0.3341056E-03
 -0.3390294E-03 -0.3439805E-03 -0.3489586E-03 -0.3539634E-03 -0.3589944E-03
 -0.3640513E-03 -0.3691336E-03 -0.3742409E-03 -0.3793727E-03 -0.3845284E-03
 -0.3897076E-03 -0.3949096E-03 -0.4001338E-03 -0.4053796E-03 -0.4106463E-03
 -0.4159333E-03 -0.4212400E-03 -0.4265655E-03 -0.4319093E-03 -0.4372704E-03
 -0.4426483E-03 -0.4480420E-03 -0.4534509E-03 -0.4588740E-03 -0.4643106E-03
 -0.4697598E-03 -0.4752208E-03 -0.4806927E-03 -0.4861747E-03 -0.4916661E-03
 -0.4971660E-03 -0.5026736E-03 -0.5081883E-03 -0.5137094E-03 -0.5192361E-03
 -0.5247677E-03 -0.5303037E-03 -0.5358433E-03 -0.5413860E-03 -0.5469312E-03
 -0.5524783E-03 -0.5580268E-03 -0.5635762E-03 -0.5691260E-03 -0.5746759E-03
 -0.5802253E-03 -0.5857740E-03 -0.5913216E-03 -0.5968678E-03 -0.6024122E-03
 -0.6079548E-03 -0.6134952E-03 -0.6190333E-03 -0.6245688E-03 -0.6301017E-03
 -0.6356316E-03 -0.6411585E-03 -0.6466822E-03 -0.6522025E-03 -0.6577193E-03
 -0.6632323E-03 -0.6687418E-03 -0.6742473E-03 -0.6797487E-03 -0.6852462E-03
 -0.6907396E-03 -0.6962287E-03 -0.7017134E-03 -0.7071937E-03 -0.7126695E-03
 -0.7181406E-03 -0.7236069E-03 -0.7290682E-03 -0.7345246E-03 -0.7399756E-03
 -0.7454214E-03 -0.7508618E-03 -0.7562965E-03 -0.7617257E-03 -0.7671491E-03
 -0.7725666E-03 -0.7779782E-03 -0.7833839E-03 -0.7887835E-03 -0.7941769E-03
 -0.7995641E-03 -0.8049451E-03 -0.8103198E-03 -0.8156883E-03 -0.8210505E-03
 -0.8264065E-03 -0.8317562E-03 -0.8370999E-03 -0.8424374E-03 -0.8477692E-03
 -0.8530951E-03 -0.8584153E-03 -0.8637301E-03 -0.8690396E-03 -0.8743440E-03
 -0.8796434E-03 -0.8849382E-03 -0.8902284E-03 -0.8955142E-03 -0.9007959E-03
 -0.9060735E-03 -0.9113474E-03 -0.9166176E-03 -0.9218844E-03 -0.9271478E-03
 -0.9324081E-03 -0.9376653E-03 -0.9429195E-03 -0.9481707E-03 -0.9534191E-03
 -0.9586647E-03 -0.9639073E-03 -0.9691470E-03 -0.9743837E-03 -0.9796174E-03
 -0.9848479E-03 -0.9900752E-03 -0.9952991E-03 -0.1000520E-02 -0.1005736E-02
 -0.1010950E-02 -0.1016159E-02 -0.1021364E-02 -0.1026566E-02 -0.1031763E-02
 -0.1036956E-02 -0.1042145E-02 -0.1047330E-02 -0.1052510E-02 -0.1057687E-02
 -0.1062859E-02 -0.1068027E-02 -0.1073192E-02 -0.1078352E-02 -0.1083510E-02
 -0.1088665E-02 -0.1093817E-02 -0.1098967E-02 -0.1104116E-02 -0.1109263E-02
 -0.1114410E-02 -0.1119556E-02 -0.1124703E-02 -0.1129850E-02 -0.1135000E-02
 -0.1140151E-02 -0.1145305E-02 -0.1150462E-02 -0.1155623E-02 -0.1160789E-02
 -0.1165960E-02 -0.1171137E-02 -0.1176319E-02 -0.1181508E-02 -0.1186704E-02
 -0.1191907E-02 -0.1197118E-02 -0.1202336E-02 -0.1207561E-02 -0.1212795E-02
 -0.1218036E-02 -0.1223285E-02 -0.1228542E-02 -0.1233806E-02 -0.1239078E-02
 -0.1244357E-02 -0.1249643E-02 -0.1254935E-02 -0.1260233E-02 -0.1265537E-02
 -0.1270846E-02 -0.1276160E-02 -0.1281478E-02 -0.1286800E-02 -0.1292125E-02
 -0.1297453E-02 -0.1302784E-02 -0.1308116E-02 -0.1313450E-02 -0.1318785E-02
 -0.1324121E-02 -0.1329458E-02 -0.1334796E-02 -0.1340133E-02 -0.1345471E-02
 -0.1350809E-02 -0.1356147E-02 -0.1361484E-02 -0.1366822E-02 -0.1372160E-02
 -0.1377498E-02 -0.1382836E-02 -0.1388175E-02 -0.1393516E-02 -0.1398857E-02
 -0.1404200E-02 -0.1409545E-02 -0.1414893E-02 -0.1420244E-02 -0.1425597E-02
 -0.1430955E-02 -0.1436317E-02 -0.1441684E-02 -0.1447055E-02 -0.1452432E-02
 -0.1457814E-02 -0.1463203E-02 -0.1468597E-02 -0.1473999E-02 -0.1479408E-02
 -0.1484825E-02 -0.1490249E-02 -0.1495681E-02 -0.1501121E-02 -0.1506570E-02
 -0.1512027E-02 -0.1517492E-02 -0.1522965E-02 -0.1528447E-02 -0.1533936E-02
 -0.1539434E-02 -0.1544939E-02 -0.1550453E-02 -0.1555973E-02 -0.1561501E-02
 -0.1567036E-02 -0.1572578E-02 -0.1578126E-02 -0.1583680E-02 -0.1589240E-02
 -0.1594806E-02 -0.1600376E-02 -0.1605951E-02 -0.1611529E-02 -0.1617111E-02
 -0.1622696E-02 -0.1628283E-02 -0.1633872E-02 -0.1639463E-02 -0.1645056E-02
 -0.1650649E-02 -0.1656243E-02 -0.1661838E-02 -0.1667433E-02 -0.1673028E-02
 -0.1678623E-02 -0.1684217E-02 -0.1689811E-02 -0.1695403E-02 -0.1700994E-02
 -0.1706584E-02 -0.1712173E-02 -0.1717761E-02 -0.1723349E-02 -0.1728935E-02
 -0.1734522E-02 -0.1740109E-02 -0.1745697E-02 -0.1751286E-02 -0.1756876E-02
 -0.1762469E-02 -0.1768063E-02 -0.1773661E-02 -0.1779261E-02 -0.1784866E-02
 -0.1790474E-02 -0.1796086E-02 -0.1801704E-02 -0.1807328E-02 -0.1812959E-02
 -0.1818597E-02 -0.1824242E-02 -0.1829895E-02 -0.1835557E-02 -0.1841228E-02
 -0.1846908E-02 -0.1852598E-02 -0.1858297E-02 -0.1864005E-02 -0.1869724E-02
 -0.1875451E-02 -0.1881189E-02 -0.1886936E-02 -0.1892693E-02 -0.1898459E-02
 -0.1904235E-02 -0.1910020E-02 -0.1915814E-02 -0.1921617E-02 -0.1927427E-02
 -0.1933245E-02 -0.1939070E-02 -0.1944901E-02 -0.1950738E-02 -0.1956580E-02
 -0.1962425E-02 -0.1968274E-02 -0.1974126E-02 -0.1979981E-02 -0.1985837E-02
 -0.1991694E-02 -0.1997551E-02 -0.2003409E-02 -0.2009265E-02 -0.2015120E-02
 -0.2020973E-02 -0.2026823E-02 -0.2032670E-02 -0.2038512E-02 -0.2044350E-02
 -0.2050183E-02 -0.2056010E-02 -0.2061831E-02 -0.2067646E-02 -0.2073455E-02
 -0.2079257E-02 -0.2085052E-02 -0.2090840E-02 -0.2096621E-02 -0.2102394E-02
 -0.2108159E-02 -0.2113916E-02 -0.2119664E-02 -0.2125405E-02 -0.2131136E-02
 -0.2136859E-02 -0.2142573E-02 -0.2148279E-02 -0.2153976E-02 -0.2159664E-02
 -0.2165343E-02 -0.2171014E-02 -0.2176675E-02 -0.2182328E-02 -0.2187971E-02
 -0.2193605E-02 -0.2199230E-02 -0.2204845E-02 -0.2210451E-02 -0.2216046E-02
 -0.2221633E-02 -0.2227209E-02 -0.2232775E-02 -0.2238331E-02 -0.2243877E-02
 -0.2249414E-02 -0.2254939E-02 -0.2260455E-02 -0.2265960E-02 -0.2271455E-02
 -0.2276939E-02 -0.2282412E-02 -0.2287873E-02 -0.2293325E-02 -0.2298765E-02
 -0.2304194E-02 -0.2309613E-02 -0.2315021E-02 -0.2320418E-02 -0.2325805E-02
 -0.2331181E-02 -0.2336548E-02 -0.2341905E-02 -0.2347253E-02 -0.2352592E-02
 -0.2357922E-02 -0.2363243E-02 -0.2368556E-02 -0.2373860E-02 -0.2379157E-02
 -0.2384447E-02 -0.2389731E-02 -0.2395009E-02 -0.2400281E-02 -0.2405549E-02
 -0.2410813E-02 -0.2416074E-02 -0.2421332E-02 -0.2426588E-02 -0.2431843E-02
 -0.2437097E-02 -0.2442351E-02 -0.2447606E-02 -0.2452862E-02 -0.2458120E-02
 -0.2463381E-02 -0.2468645E-02 -0.2473914E-02 -0.2479188E-02 -0.2484469E-02
 -0.2489756E-02 -0.2495050E-02 -0.2500353E-02 -0.2505665E-02 -0.2510986E-02
 -0.2516317E-02 -0.2521659E-02 -0.2527012E-02 -0.2532377E-02 -0.2537755E-02
 -0.2543146E-02 -0.2548551E-02 -0.2553971E-02 -0.2559406E-02 -0.2564856E-02
 -0.2570321E-02 -0.2575803E-02 -0.2581301E-02 -0.2586815E-02 -0.2592347E-02
 -0.2597896E-02 -0.2603462E-02 -0.2609045E-02 -0.2614646E-02 -0.2620264E-02
 -0.2625900E-02 -0.2631552E-02 -0.2637221E-02 -0.2642906E-02 -0.2648607E-02
 -0.2654323E-02 -0.2660054E-02 -0.2665799E-02 -0.2671557E-02 -0.2677328E-02
 -0.2683111E-02 -0.2688905E-02 -0.2694708E-02 -0.2700521E-02 -0.2706341E-02
 -0.2712168E-02 -0.2718000E-02 -0.2723836E-02 -0.2729676E-02 -0.2735517E-02
 -0.2741358E-02 -0.2747197E-02 -0.2753034E-02 -0.2758865E-02 -0.2764691E-02
 -0.2770510E-02 -0.2776320E-02 -0.2782119E-02 -0.2787906E-02 -0.2793681E-02
 -0.2799440E-02 -0.2805184E-02 -0.2810910E-02 -0.2816617E-02 -0.2822304E-02
 -0.2827969E-02 -0.2833611E-02 -0.2839229E-02 -0.2844822E-02 -0.2850388E-02
 -0.2855926E-02 -0.2861436E-02 -0.2866916E-02 -0.2872366E-02 -0.2877784E-02
 -0.2883170E-02 -0.2888522E-02 -0.2893841E-02 -0.2899125E-02 -0.2904373E-02
 -0.2909585E-02 -0.2914760E-02 -0.2919896E-02 -0.2924995E-02 -0.2930055E-02
 -0.2935075E-02 -0.2940056E-02 -0.2944997E-02 -0.2949897E-02 -0.2954755E-02
 -0.2959572E-02 -0.2964348E-02 -0.2969082E-02 -0.2973774E-02 -0.2978424E-02
 -0.2983032E-02 -0.2987598E-02 -0.2992122E-02 -0.2996606E-02 -0.3001049E-02
 -0.3005451E-02 -0.3009814E-02 -0.3014138E-02 -0.3018423E-02 -0.3022670E-02
 -0.3026882E-02 -0.3031059E-02 -0.3035202E-02 -0.3039313E-02 -0.3043393E-02
 -0.3047445E-02 -0.3051470E-02 -0.3055470E-02 -0.3059447E-02 -0.3063403E-02
 -0.3067340E-02 -0.3071263E-02 -0.3075171E-02 -0.3079068E-02 -0.3082958E-02
 -0.3086843E-02 -0.3090725E-02 -0.3094607E-02 -0.3098493E-02 -0.3102385E-02
 -0.3106287E-02 -0.3110200E-02 -0.3114129E-02 -0.3118076E-02 -0.3122044E-02
 -0.3126036E-02 -0.3130055E-02 -0.3134103E-02 -0.3138182E-02 -0.3142296E-02
 -0.3146447E-02 -0.3150636E-02 -0.3154866E-02 -0.3159140E-02 -0.3163457E-02
 -0.3167821E-02 -0.3172232E-02 -0.3176692E-02 -0.3181202E-02 -0.3185764E-02
 -0.3190377E-02 -0.3195042E-02 -0.3199761E-02 -0.3204532E-02 -0.3209355E-02
 -0.3214231E-02 -0.3219158E-02 -0.3224137E-02 -0.3229167E-02 -0.3234245E-02
 -0.3239372E-02 -0.3244544E-02 -0.3249761E-02 -0.3255020E-02 -0.3260319E-02
 -0.3265655E-02 -0.3271027E-02 -0.3276430E-02 -0.3281862E-02 -0.3287319E-02
 -0.3292798E-02 -0.3298295E-02 -0.3303806E-02 -0.3309326E-02 -0.3314850E-02
 -0.3320374E-02 -0.3325891E-02 -0.3331396E-02 -0.3336883E-02 -0.3342347E-02
 -0.3347780E-02 -0.3353175E-02 -0.3358528E-02 -0.3363828E-02 -0.3369071E-02
 -0.3374248E-02 -0.3379350E-02 -0.3384369E-02 -0.3389298E-02 -0.3394125E-02
 -0.3398844E-02 -0.3403444E-02 -0.3407916E-02 -0.3412248E-02 -0.3416433E-02
 -0.3420458E-02 -0.3424313E-02 -0.3427989E-02 -0.3431473E-02 -0.3434756E-02
 -0.3437826E-02 -0.3440672E-02 -0.3443282E-02 -0.3445644E-02 -0.3447747E-02
 -0.3449578E-02 -0.3451125E-02 -0.3452376E-02 -0.3453318E-02 -0.3453939E-02
 -0.3454227E-02 -0.3454169E-02 -0.3453753E-02 -0.3452966E-02 -0.3451796E-02
 -0.3450230E-02 -0.3448256E-02 -0.3445861E-02 -0.3443031E-02 -0.3439754E-02
 -0.3436017E-02 -0.3431806E-02 -0.3427109E-02 -0.3421913E-02 -0.3416205E-02
 -0.3409973E-02 -0.3403203E-02 -0.3395883E-02 -0.3388001E-02 -0.3379544E-02
 -0.3370499E-02 -0.3360855E-02 -0.3350599E-02 -0.3339717E-02 -0.3328200E-02
 -0.3316034E-02 -0.3303207E-02 -0.3289708E-02 -0.3275525E-02 -0.3260648E-02
 -0.3245065E-02 -0.3228765E-02 -0.3211737E-02 -0.3193972E-02 -0.3175461E-02
 -0.3156192E-02 -0.3136157E-02 -0.3115347E-02 -0.3093752E-02 -0.3071365E-02
 -0.3048175E-02 -0.3024177E-02 -0.2999362E-02 -0.2973722E-02 -0.2947252E-02
 -0.2919944E-02 -0.2891794E-02 -0.2862795E-02 -0.2832942E-02 -0.2802231E-02
 -0.2770657E-02 -0.2738217E-02 -0.2704907E-02 -0.2670724E-02 -0.2635664E-02
 -0.2599727E-02 -0.2562909E-02 -0.2525211E-02 -0.2486630E-02 -0.2447166E-02
 -0.2406821E-02 -0.2365594E-02 -0.2323487E-02 -0.2280501E-02 -0.2236638E-02
 -0.2191902E-02 -0.2146294E-02 -0.2099819E-02 -0.2052480E-02 -0.2004282E-02
 -0.1955230E-02 -0.1905331E-02 -0.1854590E-02 -0.1803013E-02 -0.1750609E-02