  0.1425000      -12345.00      -12345.00      0.1000000E+10  -12345.00    
  -30.00000      -12345.00       0.000000      -12345.00      -12345.00    
  -12345.00      -12345.00      -12345.00      -12345.00      -12345.00    
  -12345.00      -12345.00      -12345.00      -12345.00      -12345.00    
  -12345.00      -12345.00      -12345.00      -12345.00      -12345.00    
  -12345.00      -12345.00      -12345.00      -12345.00      -12345.00    
  -12345.00      -27.12670      -109.3344       110.0000       0.000000    
  -13.82000      -67.25000      -12345.00       647.1000      -12345.00    
   20.00000       34.00000       500.0000      -12345.00      -12345.00    
  -12345.00      -12345.00      -12345.00      -12345.00      -12345.00    
  -12345.00      -12345.00      -12345.00      -12345.00      -12345.00    
  -12345.00      -12345.00       0.000000       0.000000      -12345.00    
  -12345.00      -12345.00      -12345.00      -12345.00      -12345.00    
  -12345.00      -12345.00      -12345.00      -12345.00      -12345.00    
      1994       160         0        33        45
       399         6    -12345    -12345     25600
    -12345    -12345    -12345    -12345    -12345
         1         6        11    -12345    -12345
    -12345    -12345        40    -12345    -12345
    -12345    -12345    -12345    -12345    -12345
    -12345    -12345    -12345    -12345    -12345
         1         1         1         1    -12345
RPN     060994A         
S3      -12345  -12345  
-12345  -12345  -12345  
-12345  -12345  -12345  
-12345  -12345  -12345  
-12345  -12345  SY      
SEM7.0.0Horse   MXZ     
II      -12345  -12345  
   0.000000       0.000000       0.000000       0.000000       0.000000    
   0.000000       0.000000       0.000000       0.000000       0.000000    
   0.000000       0.000000       0.000000       0.000000       0.000000    
   0.000000       0.000000       0.000000       0.000000       0.000000    
   0.000000       0.000000       0.000000       0.000000       0.000000    
   0.000000       0.000000       0.000000       0.000000       0.000000    
   0.000000       0.000000       0.000000       0.000000       0.000000    
   0.000000       0.000000       0.000000       0.000000       0.000000    
   0.000000       0.000000       0.000000       0.000000       0.000000    
   0.000000       0.000000       0.000000       0.000000       0.000000    
   0.000000       0.000000       0.000000       0.000000       0.000000    
   0.000000       0.000000       0.000000       0.000000       0.000000    
   0.000000       0.000000       0.000000       0.000000       0.000000    
   0.000000       0.000000       0.000000       0.000000       0.000000    
   0.000000       0.000000       0.000000       0.000000       0.000000    
   0.000000       0.000000       0.000000       0.000000       0.000000    
   0.000000       0.000000       0.000000       0.000000       0.000000    
   0.000000       0.000000       0.000000       0.000000       0.000000    
   0.000000       0.000000       0.000000       0.000000       0.000000    
   0.000000       0.000000       0.000000       0.000000       0.000000    
   0.000000       0.000000       0.000000       0.000000       0.000000    
   0.000000       0.000000       0.000000       0.000000       0.000000    
   0.000000       0.000000       0.000000       0.000000       0.000000    
   0.000000       0.000000       0.000000       0.000000       0.000000    
   0.000000       0.000000       0.000000       0.000000       0.000000    
   0.000000       0.000000       0.000000       0.000000       0.000000    
   0.000000       0.000000       0.000000       0.000000       0.000000    
   0.000000       0.000000       0.000000       0.000000       0.000000    
   0.000000       0.000000       0.000000       0.000000       0.000000    
   0.000000       0.000000       0.000000       0.000000       0.000000    
   0.000000       0.000000       0.000000       0.000000       0.000000    
   0.000000       0.000000       0.000000       0.000000       0.000000    
   0.000000       0.000000       0.000000       0.000000       0.000000    
   0.000000       0.000000       0.000000       0.000000       0.000000    
   0.000000       0.000000       0.000000       0.000000       0.000000    
   0.000000       0.000000       0.000000       0.000000       0.000000    
   0.000000       0.000000       0.000000       0.000000       0.000000    
   0.000000       0.000000       0.000000       0.000000       0.000000    
   0.000000       0.000000       0.000000       0.000000       0.000000    
   0.000000       0.000000       0.000000       0.000000       0.000000    
   0.000000       0.000000       0.000000       0.000000       0.000000    
   0.000000       0.000000       0.000000       0.000000       0.000000    
   0.000000       0.000000       0.000000       0.000000       0.000000    
   0.000000       0.000000       0.000000       0.000000       0.000000    
   0.000000       0.000000       0.000000       0.000000       0.000000    
   0.000000       0.000000       0.000000       0.000000       0.000000    
   0.000000       0.000000       0.000000       0.000000       0.000000    
   0.000000       0.000000       0.000000       0.000000       0.000000    
   0.000000       0.000000       0.000000       0.000000       0.000000    
   0.000000       0.000000       0.000000       0.000000       0.000000    
   0.000000       0.000000       0.000000       0.000000       0.000000    
   0.000000       0.000000       0.000000       0.000000       0.000000    
   0.000000       0.000000       0.000000       0.000000       0.000000    
   0.000000       0.000000       0.000000       0.000000       0.000000    
   0.000000       0.000000       0.000000       0.000000       0.000000    
   0.000000       0.000000       0.000000       0.000000       0.000000    
   0.000000       0.000000       0.000000       0.000000       0.000000    
   0.000000       0.000000       0.000000       0.000000       0.000000    
   0.000000       0.000000       0.000000       0.000000       0.000000    
   0.000000       0.000000       0.000000       0.000000       0.000000    
   0.000000       0.000000       0.000000       0.000000       0.000000    
   0.000000       0.000000       0.000000       0.000000       0.000000    
   0.000000       0.000000       0.000000       0.000000       0.000000    
   0.000000       0.000000       0.000000       0.000000       0.000000    
   0.000000       0.000000       0.000000       0.000000       0.000000    
   0.000000       0.000000       0.000000       0.000000       0.000000    
   0.000000       0.000000       0.000000       0.000000       0.000000    
   0.000000       0.000000       0.000000       0.000000       0.000000    
   0.000000       0.000000       0.000000       0.000000       0.000000    
   0.000000       0.000000       0.000000       0.000000       0.000000    
   0.000000       0.000000       0.000000       0.000000       0.000000    
   0.000000       0.000000       0.000000       0.000000       0.000000    
   0.000000       0.000000       0.000000       0.000000       0.000000    
   0.000000       0.000000       0.000000       0.000000       0.000000    
   0.000000       0.000000       0.000000       0.000000       0.000000    
   0.000000       0.000000       0.000000       0.000000       0.000000    
   0.000000       0.000000       0.000000       0.000000       0.000000    
   0.000000       0.000000       0.000000       0.000000       0.000000    
   0.000000       0.000000       0.000000       0.000000       0.000000    
   0.000000       0.000000       0.000000       0.000000       0.000000    
   0.000000       0.000000       0.000000       0.000000       0.000000    
   0.000000       0.000000       0.000000       0.000000       0.000000    
   0.000000       0.000000       0.000000       0.000000       0.000000    
   0.000000       0.000000       0.000000       0.000000       0.000000    
   0.000000       0.000000       0.000000       0.000000       0.000000    
   0.000000       0.000000       0.000000       0.000000       0.000000    
   0.000000       0.000000       0.000000       0.000000       0.000000    
   0.000000       0.000000       0.000000       0.000000       0.000000    
   0.000000       0.000000       0.000000       0.000000       0.000000    
   0.000000       0.000000       0.000000       0.000000       0.000000    
   0.000000       0.000000       0.000000       0.000000       0.000000    
   0.000000       0.000000       0.000000       0.000000       0.000000    
   0.000000       0.000000       0.000000       0.000000       0.000000    
   0.000000       0.000000       0.000000       0.000000       0.000000    
   0.000000       0.000000       0.000000       0.000000       0.000000    
   0.000000       0.000000       0.000000       0.000000       0.000000    
   0.000000       0.000000       0.000000       0.000000       0.000000    
   0.000000       0.000000       0.000000       0.000000       0.000000    
   0.000000       0.000000       0.000000       0.000000       0.000000    
   0.000000       0.000000       0.000000       0.000000       0.000000    
   0.000000       0.000000       0.000000       0.000000       0.000000    
   0.000000       0.000000       0.000000       0.000000       0.000000    
   0.000000       0.000000       0.000000       0.000000       0.000000    
   0.000000       0.000000       0.000000       0.000000       0.000000    
   0.000000       0.000000       0.000000       0.000000       0.000000    
   0.000000       0.000000       0.000000       0.000000       0.000000    
   0.000000       0.000000       0.000000       0.000000       0.000000    
   0.000000       0.000000       0.000000       0.000000       0.000000    
   0.000000       0.000000       0.000000       0.000000       0.000000    
   0.000000       0.000000       0.000000       0.000000       0.000000    
   0.000000       0.000000       0.000000       0.000000       0.000000    
   0.000000       0.000000       0.000000       0.000000       0.000000    
   0.000000       0.000000       0.000000       0.000000       0.000000    
   0.000000       0.000000       0.000000       0.000000       0.000000    
   0.000000       0.000000       0.000000       0.000000       0.000000    
   0.000000       0.000000       0.000000       0.000000       0.000000    
   0.000000       0.000000       0.000000       0.000000       0.000000    
   0.000000       0.000000       0.000000       0.000000       0.000000    
   0.000000       0.000000       0.000000       0.000000       0.000000    
   0.000000       0.000000       0.000000       0.000000       0.000000    
   0.000000       0.000000       0.000000       0.000000       0.000000    
   0.000000       0.000000       0.000000       0.000000       0.000000    
   0.000000       0.000000       0.000000       0.000000       0.000000    
   0.000000       0.000000       0.000000       0.000000       0.000000    
   0.000000       0.000000       0.000000       0.000000       0.000000    
   0.000000       0.000000       0.000000       0.000000       0.000000    
   0.000000       0.000000       0.000000       0.000000       0.000000    
   0.000000       0.000000       0.000000       0.000000       0.000000    
   0.000000       0.000000       0.000000       0.000000       0.000000    
   0.000000       0.000000       0.000000       0.000000       0.000000    
   0.000000       0.000000       0.000000       0.000000       0.000000    
   0.000000       0.000000       0.000000       0.000000       0.000000    
   0.000000       0.000000       0.000000       0.000000       0.000000    
   0.000000       0.000000       0.000000       0.000000       0.000000    
   0.000000       0.000000       0.000000       0.000000       0.000000    
   0.000000       0.000000       0.000000       0.000000       0.000000    
   0.000000       0.000000       0.000000       0.000000       0.000000    
   0.000000       0.000000       0.000000       0.000000       0.000000    
   0.000000       0.000000       0.000000       0.000000       0.000000    
   0.000000       0.000000       0.000000       0.000000       0.000000    
   0.000000       0.000000       0.000000       0.000000       0.000000    
   0.000000       0.000000       0.000000       0.000000       0.000000    
   0.000000       0.000000       0.000000       0.000000       0.000000    
   0.000000       0.000000       0.000000       0.000000       0.000000    
   0.000000       0.000000       0.000000       0.000000       0.000000    
   0.000000       0.000000       0.000000       0.000000       0.000000    
   0.000000       0.000000       0.000000       0.000000       0.000000    
   0.000000       0.000000       0.000000       0.000000       0.000000    
   0.000000       0.000000       0.000000       0.000000       0.000000    
   0.000000       0.000000       0.000000       0.000000       0.000000    
   0.000000       0.000000       0.000000       0.000000       0.000000    
   0.000000       0.000000       0.000000       0.000000       0.000000    
   0.000000       0.000000       0.000000       0.000000       0.000000    
   0.000000       0.000000       0.000000       0.000000       0.000000    
   0.000000       0.000000       0.000000       0.000000       0.000000    
   0.000000       0.000000       0.000000       0.000000       0.000000    
   0.000000       0.000000       0.000000       0.000000       0.000000    
   0.000000       0.000000       0.000000       0.000000       0.000000    
   0.000000       0.000000       0.000000       0.000000       0.000000    
   0.000000       0.000000       0.000000       0.000000       0.000000    
   0.000000       0.000000       0.000000       0.000000       0.000000    
   0.000000       0.000000       0.000000       0.000000       0.000000    
   0.000000       0.000000       0.000000       0.000000       0.000000    
   0.000000       0.000000       0.000000       0.000000       0.000000    
   0.000000       0.000000       0.000000       0.000000       0.000000    
   0.000000       0.000000       0.000000       0.000000       0.000000    
   0.000000       0.000000       0.000000       0.000000       0.000000    
   0.000000       0.000000       0.000000       0.000000       0.000000    
   0.000000       0.000000       0.000000       0.000000       0.000000    
   0.000000       0.000000       0.000000       0.000000       0.000000    
   0.000000       0.000000       0.000000       0.000000       0.000000    
   0.000000       0.000000       0.000000       0.000000       0.000000    
   0.000000       0.000000       0.000000       0.000000       0.000000    
   0.000000       0.000000       0.000000       0.000000       0.000000    
   0.000000       0.000000       0.000000       0.000000       0.000000    
   0.000000       0.000000       0.000000       0.000000       0.000000    
   0.000000       0.000000       0.000000       0.000000       0.000000    
   0.000000       0.000000       0.000000       0.000000       0.000000    
   0.000000       0.000000       0.000000       0.000000       0.000000    
   0.000000       0.000000       0.000000       0.000000       0.000000    
   0.000000       0.000000       0.000000       0.000000       0.000000    
   0.000000       0.000000       0.000000       0.000000       0.000000    
   0.000000       0.000000       0.000000       0.000000       0.000000    
   0.000000       0.000000       0.000000       0.000000       0.000000    
   0.000000       0.000000       0.000000       0.000000       0.000000    
   0.000000       0.000000       0.000000       0.000000       0.000000    
   0.000000       0.000000       0.000000       0.000000       0.000000    
   0.000000       0.000000       0.000000       0.000000       0.000000    
   0.000000       0.000000       0.000000       0.000000       0.000000    
   0.000000       0.000000       0.000000       0.000000       0.000000    
   0.000000       0.000000       0.000000       0.000000       0.000000    
   0.000000       0.000000       0.000000       0.000000       0.000000    
   0.000000       0.000000       0.000000       0.000000       0.000000    
   0.000000      0.2867865E-34  0.5000676E-34 -0.3786203E-34 -0.1550871E-33
 -0.8528147E-34  0.1906996E-33  0.2256019E-33 -0.2140696E-33 -0.8926292E-33
 -0.7442623E-32 -0.3162313E-31 -0.6065382E-31 -0.9026582E-31 -0.1053937E-30
 -0.1264744E-30 -0.1464582E-30 -0.1661669E-30 -0.1812652E-30 -0.1847590E-30
 -0.1647161E-30 -0.1255299E-30 -0.8522703E-31 -0.2873681E-31  0.5337215E-31
  0.1447497E-30  0.2319211E-30  0.3197045E-30  0.4070318E-30  0.4790106E-30
  0.5269770E-30  0.5531254E-30  0.6154307E-30  0.6212475E-30  0.1255252E-29
  0.1872641E-29  0.2490397E-29  0.3104026E-29  0.3800481E-29  0.4575559E-29
  0.5353047E-29  0.7509570E-29  0.1114212E-28  0.1733478E-28  0.2145635E-28
  0.2322930E-28  0.2616091E-28  0.2739316E-28  0.2836119E-28  0.2546747E-28
  0.2544900E-28  0.2854291E-28  0.2939957E-28  0.2369714E-28  0.1431755E-28
  0.7860905E-29 -0.3117213E-29 -0.1900657E-28 -0.4273460E-28 -0.7069696E-28
 -0.9927099E-28 -0.1246272E-27 -0.1520346E-27 -0.1795302E-27 -0.2089680E-27
 -0.2342519E-27 -0.2592340E-27 -0.2815546E-27 -0.3000170E-27 -0.3148457E-27
 -0.3252110E-27 -0.3276240E-27 -0.3203401E-27 -0.3053886E-27 -0.2815669E-27
 -0.2486482E-27 -0.2072037E-27 -0.1543270E-27 -0.8855233E-28 -0.1170598E-28
  0.7792213E-28  0.1754878E-27  0.2816365E-27  0.3950403E-27  0.5139614E-27
  0.6352994E-27  0.7522596E-27  0.8620306E-27  0.9636632E-27  0.1055444E-26
  0.1128740E-26  0.1179272E-26  0.1200969E-26  0.1191894E-26  0.1148629E-26
  0.1069230E-26  0.9509428E-27  0.7924039E-27  0.5888510E-27  0.3393977E-27
  0.4505865E-28 -0.2931593E-27 -0.6748404E-27 -0.1094329E-26 -0.1540492E-26
 -0.2004944E-26 -0.2472547E-26 -0.2930126E-26 -0.3366166E-26 -0.3765960E-26
 -0.4114015E-26 -0.4391161E-26 -0.4579045E-26 -0.4660767E-26 -0.4623429E-26
 -0.4454664E-26 -0.4144795E-26 -0.3683680E-26 -0.3068805E-26 -0.2297660E-26
 -0.1371152E-26 -0.2929800E-27  0.9285543E-27  0.2279365E-26  0.3737866E-26
  0.5272564E-26  0.6851956E-26  0.8438053E-26  0.9990545E-26  0.1146566E-25
  0.1281461E-25  0.1398476E-25  0.1492201E-25  0.1557479E-25  0.1589294E-25
  0.1582794E-25  0.1533597E-25  0.1438137E-25  0.1293703E-25  0.1098449E-25
  0.8515950E-26  0.5536241E-26  0.2063737E-26 -0.1868202E-26 -0.6208592E-26
 -0.1088740E-25 -0.1581737E-25 -0.2089778E-25 -0.2601422E-25 -0.3103775E-25
 -0.3582704E-25 -0.4023281E-25 -0.4410062E-25 -0.4727259E-25 -0.4958954E-25
 -0.5089670E-25 -0.5104933E-25 -0.4991609E-25 -0.4738421E-25 -0.4336555E-25
 -0.3780101E-25 -0.3066315E-25 -0.2196026E-25 -0.1174282E-25 -0.1083422E-27
  0.1279802E-25  0.2678484E-25  0.4161321E-25  0.5699630E-25  0.7260221E-25
  0.8806092E-25  0.1029702E-24  0.1169006E-24  0.1294027E-24  0.1400167E-24
  0.1482822E-24  0.1537492E-24  0.1559914E-24  0.1546206E-24  0.1493006E-24
  0.1397574E-24  0.1257912E-24  0.1072916E-24  0.8425012E-25  0.5676940E-25
  0.2506903E-25 -0.1050686E-25 -0.4948306E-25 -0.9125218E-25 -0.1350792E-24
 -0.1801078E-24 -0.2253695E-24 -0.2697956E-24 -0.3122351E-24 -0.3514716E-24
 -0.3862450E-24 -0.4152785E-24 -0.4373103E-24 -0.4511260E-24 -0.4555895E-24
 -0.4496756E-24 -0.4325082E-24 -0.4033970E-24 -0.3618686E-24 -0.3076958E-24
 -0.2409267E-24 -0.1619123E-24 -0.7132599E-25  0.2982244E-25  0.1401798E-24
  0.2580494E-24  0.3814009E-24  0.5078879E-24  0.6348709E-24  0.7594484E-24
  0.8785000E-24  0.9887413E-24  0.1086786E-23  0.1169210E-23  0.1232625E-23
  0.1273767E-23  0.1289579E-23  0.1277301E-23  0.1234559E-23  0.1159456E-23
  0.1050657E-23  0.9074741E-24  0.7299429E-24  0.5188859E-24  0.2759679E-24
  0.3730892E-26 -0.2943853E-24 -0.6140373E-24 -0.9499899E-24 -0.1296153E-23
 -0.1645644E-23 -0.1990873E-23 -0.2323645E-23 -0.2635289E-23 -0.2916813E-23
 -0.3159078E-23 -0.3352992E-23 -0.3489714E-23 -0.3560881E-23 -0.3558838E-23
 -0.3476872E-23 -0.3309455E-23 -0.3052475E-23 -0.2703461E-23 -0.2261782E-23
 -0.1728821E-23 -0.1108135E-23 -0.4055717E-24  0.3706546E-24  0.1209933E-23
  0.2099279E-23  0.3023409E-23  0.3964875E-23  0.4904262E-23  0.5820454E-23
  0.6690946E-23  0.7492234E-23  0.8200249E-23  0.8790848E-23  0.9240350E-23
  0.9526109E-23  0.9627124E-23  0.9524656E-23  0.9202852E-23  0.8649351E-23
  0.7855871E-23  0.6818761E-23  0.5539485E-23  0.4025050E-23  0.2288321E-23
  0.3482544E-24 -0.1770000E-23 -0.4035126E-23 -0.6409813E-23 -0.8851075E-23
 -0.1131073E-22 -0.1373607E-22 -0.1607059E-22 -0.1825501E-22 -0.2022833E-22
 -0.2192907E-22 -0.2329665E-22 -0.2427276E-22 -0.2480293E-22 -0.2483806E-22
 -0.2433592E-22 -0.2326276E-22 -0.2159468E-22 -0.1931906E-22 -0.1643567E-22
 -0.1295778E-22 -0.8912900E-23 -0.4343301E-23  0.6937198E-24  0.6125938E-23
  0.1186666E-22  0.1781550E-22  0.2385959E-22  0.2987507E-22  0.3572909E-22
  0.4128202E-22  0.4639008E-22  0.5090828E-22  0.5469348E-22  0.5760776E-22
  0.5952188E-22  0.6031878E-22  0.5989714E-22  0.5817464E-22  0.5509132E-22
  0.5061238E-22  0.4473084E-22  0.3746963E-22  0.2888314E-22  0.1905826E-22
  0.8114656E-23 -0.3795572E-23 -0.1648904E-22 -0.2975299E-22 -0.4334801E-22
 -0.5701150E-22 -0.7046184E-22 -0.8340339E-22 -0.9553186E-22 -0.1065404E-21
 -0.1161263E-21 -0.1239971E-21 -0.1298785E-21 -0.1335204E-21 -0.1347041E-21
 -0.1332489E-21 -0.1290179E-21 -0.1219235E-21 -0.1119322E-21 -0.9906777E-22
 -0.8341448E-22 -0.6511820E-22 -0.4438675E-22 -0.2148878E-22  0.3248674E-23
  0.2944409E-22  0.5666657E-22  0.8444223E-22  0.1122618E-21  0.1395894E-21
  0.1658719E-21  0.1905495E-21  0.2130666E-21  0.2328824E-21  0.2494829E-21
  0.2623912E-21  0.2711788E-21  0.2754755E-21  0.2749783E-21  0.2694592E-21
  0.2587729E-21  0.2428612E-21  0.2217573E-21  0.1955878E-21  0.1645727E-21
  0.1290247E-21  0.8934533E-22  0.4602080E-22 -0.3846159E-24 -0.4923637E-22
 -0.9983845E-22 -0.1514433E-21 -0.2032628E-21 -0.2544798E-21 -0.3042594E-21
 -0.3517612E-21 -0.3961512E-21 -0.4366128E-21 -0.4723581E-21 -0.5026380E-21
 -0.5267519E-21 -0.5440565E-21 -0.5539736E-21 -0.5559969E-21 -0.5496980E-21
 -0.5347323E-21 -0.5108442E-21 -0.4778707E-21 -0.4357460E-21 -0.3845049E-21
 -0.3242872E-21 -0.2553420E-21 -0.1780319E-21 -0.9283744E-22 -0.3619067E-24
  0.9866348E-22  0.2033737E-21  0.3127652E-21  0.4256911E-21  0.5408574E-21
  0.6568211E-21  0.7719887E-21  0.8846180E-21  0.9928230E-21  0.1094582E-20
  0.1187752E-20  0.1270084E-20  0.1339251E-20  0.1392870E-20  0.1428546E-20
  0.1443909E-20  0.1436664E-20  0.1404650E-20  0.1345893E-20  0.1258678E-20
  0.1141618E-20  0.9937249E-21  0.8144830E-21  0.6039236E-21  0.3626934E-21
  0.9211826E-22 -0.2057394E-21 -0.5280343E-21 -0.8711050E-21 -0.1230455E-20
 -0.1600755E-20 -0.1975862E-20 -0.2348865E-20 -0.2712148E-20 -0.3057486E-20
 -0.3376161E-20 -0.3659107E-20 -0.3897080E-20 -0.4080844E-20 -0.4201390E-20
 -0.4250164E-20 -0.4219311E-20 -0.4101930E-20 -0.3892328E-20 -0.3586275E-20
 -0.3181248E-20 -0.2676659E-20 -0.2074054E-20 -0.1377288E-20 -0.5926562E-21
  0.2710241E-21  0.1202381E-20  0.2187516E-20  0.3210095E-20  0.4251508E-20
  0.5291100E-20  0.6306467E-20  0.7273829E-20  0.8168463E-20  0.8965198E-20
  0.9638965E-20  0.1016539E-19  0.1052142E-19  0.1068598E-19  0.1064061E-19
  0.1037013E-19  0.9863243E-20  0.9113090E-20  0.8117802E-20  0.6880900E-20
  0.5411633E-20  0.3725193E-20  0.1842809E-20 -0.2083012E-21 -0.2395136E-20
 -0.4679257E-20 -0.7017314E-20 -0.9361708E-20 -0.1166142E-19 -0.1386296E-19
 -0.1591149E-19 -0.1775203E-19 -0.1933071E-19 -0.2059619E-19 -0.2150098E-19
 -0.2200289E-19 -0.2206633E-19 -0.2166365E-19 -0.2077623E-19 -0.1939558E-19
 -0.1752413E-19 -0.1517585E-19 -0.1237667E-19 -0.9164547E-20 -0.5589290E-20
 -0.1712046E-20  0.2395503E-20  0.6652260E-20  0.1096915E-19  0.1525086E-19
  0.1939779E-19  0.2330829E-19  0.2688105E-19  0.3001764E-19  0.3262512E-19
  0.3461862E-19  0.3592399E-19  0.3648018E-19  0.3624156E-19  0.3517982E-19
  0.3328570E-19  0.3057018E-19  0.2706533E-19  0.2282458E-19  0.1792247E-19
  0.1245381E-19  0.6532274E-20  0.2884334E-21 -0.6132804E-20 -0.1257528E-19
 -0.1887516E-19 -0.2486491E-19 -0.3037756E-19 -0.3525132E-19 -0.3933417E-19
 -0.4248859E-19 -0.4459611E-19 -0.4556162E-19 -0.4531724E-19 -0.4382579E-19
 -0.4108351E-19 -0.3712209E-19 -0.3200978E-19 -0.2585164E-19 -0.1878862E-19
 -0.1099576E-19 -0.2679198E-20  0.5927832E-20  0.1457007E-19  0.2297624E-19
  0.3086585E-19  0.3795679E-19  0.4397342E-19  0.4865506E-19  0.5176461E-19
  0.5309717E-19  0.5248820E-19  0.4982126E-19  0.4503484E-19  0.3812811E-19
  0.2916554E-19  0.1827974E-19  0.5672827E-20 -0.8384225E-20 -0.2355411E-19
 -0.3943790E-19 -0.5558162E-19 -0.7148505E-19 -0.8661242E-19 -0.1004049E-18
 -0.1122946E-18 -0.1217202E-18 -0.1281427E-18 -0.1310635E-18 -0.1300407E-18
 -0.1247067E-18 -0.1147842E-18 -0.1001018E-18 -0.8060688E-19 -0.5637735E-19
 -0.2763029E-19  0.5272425E-20  0.4182196E-19  0.8136381E-19  0.1231033E-18
  0.1661154E-18  0.2093577E-18  0.2516890E-18  0.2918907E-18  0.3286920E-18
  0.3607992E-18  0.3869264E-18  0.4058302E-18  0.4163438E-18  0.4174138E-18
  0.4081356E-18  0.3877878E-18  0.3558652E-18  0.3121086E-18  0.2565300E-18
  0.1894344E-18  0.1114340E-18  0.2345788E-19 -0.7324718E-19 -0.1771225E-18
 -0.2863113E-18 -0.3986815E-18 -0.5118566E-18 -0.6232539E-18 -0.7301314E-18
 -0.8296413E-18 -0.9188897E-18 -0.9950022E-18 -0.1055192E-17 -0.1096833E-17
 -0.1117531E-17 -0.1115198E-17 -0.1088120E-17 -0.1035024E-17 -0.9551386E-18
 -0.8482436E-18 -0.7147148E-18 -0.5555542E-18 -0.3724098E-18 -0.1675800E-18
  0.5599493E-19  0.2947582E-18  0.5445768E-18  0.8007979E-18  0.1058321E-17
  0.1311682E-17  0.1555157E-17  0.1782868E-17  0.1988911E-17  0.2167481E-17
  0.2313009E-17  0.2420299E-17  0.2484666E-17  0.2502065E-17  0.2469225E-17
  0.2383758E-17  0.2244267E-17  0.2050431E-17  0.1803071E-17  0.1504199E-17
  0.1157035E-17  0.7660061E-18  0.3367153E-18 -0.1241190E-18 -0.6087491E-18
 -0.1108511E-17 -0.1613966E-17 -0.2115061E-17 -0.2601320E-17 -0.3062043E-17
 -0.3486527E-17 -0.3864298E-17 -0.4185344E-17 -0.4440351E-17 -0.4620939E-17
 -0.4719881E-17 -0.4731313E-17 -0.4650921E-17 -0.4476101E-17 -0.4206091E-17
 -0.3842069E-17 -0.3387209E-17 -0.2846699E-17 -0.2227714E-17 -0.1539348E-17
 -0.7924932E-18  0.3170974E-21  0.8251120E-18  0.1666724E-17  0.2509069E-17
  0.3335451E-17  0.4128898E-17  0.4872515E-17  0.5549849E-17  0.6145250E-17
  0.6644236E-17  0.7033844E-17  0.7302958E-17  0.7442605E-17  0.7446214E-17
  0.7309835E-17  0.7032302E-17  0.6615340E-17  0.6063614E-17  0.5384709E-17
  0.4589044E-17  0.3689725E-17  0.2702323E-17  0.1644605E-17  0.5361927E-18
 -0.6018204E-18 -0.1747306E-17 -0.2877563E-17 -0.3969815E-17 -0.5001714E-17
 -0.5951848E-17 -0.6800249E-17 -0.7528869E-17 -0.8122029E-17 -0.8566823E-17
 -0.8853464E-17 -0.8975553E-17 -0.8930304E-17 -0.8718650E-17 -0.8345290E-17
 -0.7818625E-17 -0.7150614E-17 -0.6356534E-17 -0.5454652E-17 -0.4465820E-17
 -0.3412978E-17 -0.2320619E-17 -0.1214178E-17 -0.1193935E-18  0.9383518E-18
  0.1934710E-17  0.2847025E-17  0.3654969E-17  0.4341128E-17  0.4891533E-17
  0.5296102E-17  0.5548998E-17  0.5648884E-17  0.5599045E-17  0.5407407E-17
  0.5086414E-17  0.4652780E-17  0.4127108E-17  0.3533376E-17  0.2898331E-17
  0.2250755E-17  0.1620656E-17  0.1038386E-17  0.5337031E-18  0.1348156E-18
 -0.1325881E-18 -0.2462569E-18 -0.1882832E-18  0.5409437E-19  0.4877916E-18
  0.1113294E-17  0.1924238E-17  0.2907153E-17  0.4041382E-17  0.5299224E-17
  0.6646235E-17  0.8041796E-17  0.9439846E-17  0.1078982E-16  0.1203776E-16
  0.1312761E-16  0.1400264E-16  0.1460698E-16  0.1488720E-16  0.1479402E-16
  0.1428391E-16  0.1332070E-16  0.1187713E-16  0.9936247E-17  0.7492576E-17
  0.4553181E-17  0.1138408E-17 -0.2717626E-17 -0.6966860E-17 -0.1154746E-16
 -0.1638432E-16 -0.2138989E-16 -0.2646545E-16 -0.3150255E-16 -0.3638501E-16
 -0.4099098E-16 -0.4519547E-16 -0.4887292E-16 -0.5190008E-16 -0.5415890E-16
 -0.5553949E-16 -0.5594320E-16 -0.5528539E-16 -0.5349819E-16 -0.5053301E-16
 -0.4636273E-16 -0.4098365E-16 -0.3441680E-16 -0.2670904E-16 -0.1793342E-16
 -0.8189221E-17  0.2398727E-17  0.1368124E-16  0.2548655E-16  0.3762268E-16
  0.4988028E-16  0.6203602E-16  0.7385633E-16  0.8510161E-16  0.9553079E-16
  0.1049059E-15  0.1129970E-15  0.1195870E-15  0.1244764E-15  0.1274879E-15
  0.1284711E-15  0.1273058E-15  0.1239061E-15  0.1182231E-15  0.1102474E-15
  0.1000105E-15  0.8758575E-16  0.7308867E-16  0.5667603E-16  0.3854452E-16
  0.1892830E-16 -0.1903997E-17 -0.2365314E-16 -0.4599367E-16 -0.6857902E-16
 -0.9104703E-16 -0.1130260E-15 -0.1341409E-15 -0.1540198E-15 -0.1723003E-15
 -0.1886362E-15 -0.2027033E-15 -0.2142059E-15 -0.2228815E-15 -0.2285066E-15
 -0.2309005E-15 -0.2299292E-15 -0.2255079E-15 -0.2176034E-15 -0.2062352E-15
 -0.1914754E-15 -0.1734488E-15 -0.1523310E-15 -0.1283460E-15 -0.1017635E-15
 -0.7289519E-16 -0.4208999E-16 -0.9729616E-17  0.2377707E-16  0.5799977E-16
  0.9249251E-16  0.1267997E-15  0.1604624E-15  0.1930239E-15  0.2240361E-15
  0.2530649E-15  0.2796954E-15  0.3035368E-15  0.3242269E-15  0.3414362E-15
  0.3548714E-15  0.3642785E-15  0.3694451E-15  0.3702032E-15  0.3664296E-15
  0.3580485E-15  0.3450313E-15  0.3273980E-15  0.3052163E-15  0.2786024E-15
  0.2477204E-15  0.2127819E-15  0.1740448E-15  0.1318131E-15  0.8643501E-16
  0.3830235E-16 -0.1215135E-16 -0.6445259E-16 -0.1180901E-15 -0.1725172E-15
 -0.2271548E-15 -0.2813946E-15 -0.3346029E-15 -0.3861254E-15 -0.4352924E-15
 -0.4814244E-15 -0.5238387E-15 -0.5618562E-15 -0.5948102E-15 -0.6220547E-15
 -0.6429740E-15 -0.6569922E-15 -0.6635831E-15 -0.6622816E-15 -0.6526935E-15
 -0.6345068E-15 -0.6075017E-15 -0.5715600E-15 -0.5266748E-15 -0.4729578E-15
 -0.4106468E-15 -0.3401099E-15 -0.2618495E-15 -0.1765035E-15 -0.8484498E-16
  0.1222177E-16  0.1136660E-15  0.2183393E-15  0.3249854E-15  0.4322551E-15
  0.5387203E-15  0.6428930E-15  0.7432450E-15  0.8382305E-15  0.9263088E-15