  0.1425000      -12345.00      -12345.00      0.1000000E+10  -12345.00    
  -30.00000      -12345.00       0.000000      -12345.00      -12345.00    
  -12345.00      -12345.00      -12345.00      -12345.00      -12345.00    
  -12345.00      -12345.00      -12345.00      -12345.00      -12345.00    
  -12345.00      -12345.00      -12345.00      -12345.00      -12345.00    
  -12345.00      -12345.00      -12345.00      -12345.00      -12345.00    
  -12345.00      -27.12670      -109.3344       110.0000       0.000000    
  -13.82000      -67.25000      -12345.00       647.1000      -12345.00    
   20.00000       34.00000       500.0000      -12345.00      -12345.00    
  -12345.00      -12345.00      -12345.00      -12345.00      -12345.00    
  -12345.00      -12345.00      -12345.00      -12345.00      -12345.00    
  -12345.00      -12345.00       90.00000       90.00000      -12345.00    
  -12345.00      -12345.00      -12345.00      -12345.00      -12345.00    
  -12345.00      -12345.00      -12345.00      -12345.00      -12345.00    
      1994       160         0        33        45
       399         6    -12345    -12345     25600
    -12345    -12345    -12345    -12345    -12345
         1         6        11    -12345    -12345
    -12345    -12345        40    -12345    -12345
    -12345    -12345    -12345    -12345    -12345
    -12345    -12345    -12345    -12345    -12345
         1         1         1         1    -12345
RPN     060994A         
S3      -12345  -12345  
-12345  -12345  -12345  
-12345  -12345  -12345  
-12345  -12345  -12345  
-12345  -12345  SY      
SEM7.0.0Horse   MXE     
II      -12345  -12345  
   0.000000       0.000000       0.000000       0.000000       0.000000    
   0.000000       0.000000       0.000000       0.000000       0.000000    
   0.000000       0.000000       0.000000       0.000000       0.000000    
   0.000000       0.000000       0.000000       0.000000       0.000000    
   0.000000       0.000000       0.000000       0.000000       0.000000    
   0.000000       0.000000       0.000000       0.000000       0.000000    
   0.000000       0.000000       0.000000       0.000000       0.000000    
   0.000000       0.000000       0.000000       0.000000       0.000000    
   0.000000       0.000000       0.000000       0.000000       0.000000    
   0.000000       0.000000       0.000000       0.000000       0.000000    
   0.000000       0.000000       0.000000       0.000000       0.000000    
   0.000000       0.000000       0.000000       0.000000       0.000000    
   0.000000       0.000000       0.000000       0.000000       0.000000    
   0.000000       0.000000       0.000000       0.000000       0.000000    
   0.000000       0.000000       0.000000       0.000000       0.000000    
   0.000000       0.000000       0.000000       0.000000       0.000000    
   0.000000       0.000000       0.000000       0.000000       0.000000    
   0.000000       0.000000       0.000000       0.000000       0.000000    
   0.000000       0.000000       0.000000       0.000000       0.000000    
   0.000000       0.000000       0.000000       0.000000       0.000000    
   0.000000       0.000000       0.000000       0.000000       0.000000    
   0.000000       0.000000       0.000000       0.000000       0.000000    
   0.000000       0.000000       0.000000       0.000000       0.000000    
   0.000000       0.000000       0.000000       0.000000       0.000000    
   0.000000       0.000000       0.000000       0.000000       0.000000    
   0.000000       0.000000       0.000000       0.000000       0.000000    
   0.000000       0.000000       0.000000       0.000000       0.000000    
   0.000000       0.000000       0.000000       0.000000       0.000000    
   0.000000       0.000000       0.000000       0.000000       0.000000    
   0.000000       0.000000       0.000000       0.000000       0.000000    
   0.000000       0.000000       0.000000       0.000000       0.000000    
   0.000000       0.000000       0.000000       0.000000       0.000000    
   0.000000       0.000000       0.000000       0.000000       0.000000    
   0.000000       0.000000       0.000000       0.000000       0.000000    
   0.000000       0.000000       0.000000       0.000000       0.000000    
   0.000000       0.000000       0.000000       0.000000       0.000000    
   0.000000       0.000000       0.000000       0.000000       0.000000    
   0.000000       0.000000       0.000000       0.000000       0.000000    
   0.000000       0.000000       0.000000       0.000000       0.000000    
   0.000000       0.000000       0.000000       0.000000       0.000000    
   0.000000       0.000000       0.000000       0.000000       0.000000    
   0.000000       0.000000       0.000000       0.000000       0.000000    
   0.000000       0.000000       0.000000       0.000000       0.000000    
   0.000000       0.000000       0.000000       0.000000       0.000000    
   0.000000       0.000000       0.000000       0.000000       0.000000    
   0.000000       0.000000       0.000000       0.000000       0.000000    
   0.000000       0.000000       0.000000       0.000000       0.000000    
   0.000000       0.000000       0.000000       0.000000       0.000000    
   0.000000       0.000000       0.000000       0.000000       0.000000    
   0.000000       0.000000       0.000000       0.000000       0.000000    
   0.000000       0.000000       0.000000       0.000000       0.000000    
   0.000000       0.000000       0.000000       0.000000       0.000000    
   0.000000       0.000000       0.000000       0.000000       0.000000    
   0.000000       0.000000       0.000000       0.000000       0.000000    
   0.000000       0.000000       0.000000       0.000000       0.000000    
   0.000000       0.000000       0.000000       0.000000       0.000000    
   0.000000       0.000000       0.000000       0.000000       0.000000    
   0.000000       0.000000       0.000000       0.000000       0.000000    
   0.000000       0.000000       0.000000       0.000000       0.000000    
   0.000000       0.000000       0.000000       0.000000       0.000000    
   0.000000       0.000000       0.000000       0.000000       0.000000    
   0.000000       0.000000       0.000000       0.000000       0.000000    
   0.000000       0.000000       0.000000       0.000000       0.000000    
   0.000000       0.000000       0.000000       0.000000       0.000000    
   0.000000       0.000000       0.000000       0.000000       0.000000    
   0.000000       0.000000       0.000000       0.000000       0.000000    
   0.000000       0.000000       0.000000       0.000000       0.000000    
   0.000000       0.000000       0.000000       0.000000       0.000000    
   0.000000       0.000000       0.000000       0.000000       0.000000    
   0.000000       0.000000       0.000000       0.000000       0.000000    
   0.000000       0.000000       0.000000       0.000000       0.000000    
   0.000000       0.000000       0.000000       0.000000       0.000000    
   0.000000       0.000000       0.000000       0.000000       0.000000    
   0.000000       0.000000       0.000000       0.000000       0.000000    
   0.000000       0.000000       0.000000       0.000000       0.000000    
   0.000000       0.000000       0.000000       0.000000       0.000000    
   0.000000       0.000000       0.000000       0.000000       0.000000    
   0.000000       0.000000       0.000000       0.000000       0.000000    
   0.000000       0.000000       0.000000       0.000000       0.000000    
   0.000000       0.000000       0.000000       0.000000       0.000000    
   0.000000       0.000000       0.000000       0.000000       0.000000    
   0.000000       0.000000       0.000000       0.000000       0.000000    
   0.000000       0.000000       0.000000       0.000000       0.000000    
   0.000000       0.000000       0.000000       0.000000       0.000000    
   0.000000       0.000000       0.000000       0.000000       0.000000    
   0.000000       0.000000       0.000000       0.000000       0.000000    
   0.000000       0.000000       0.000000       0.000000       0.000000    
   0.000000       0.000000       0.000000       0.000000       0.000000    
   0.000000       0.000000       0.000000       0.000000       0.000000    
   0.000000       0.000000       0.000000       0.000000       0.000000    
   0.000000       0.000000       0.000000       0.000000       0.000000    
   0.000000       0.000000       0.000000       0.000000       0.000000    
   0.000000       0.000000       0.000000       0.000000       0.000000    
   0.000000       0.000000       0.000000       0.000000       0.000000    
   0.000000       0.000000       0.000000       0.000000       0.000000    
   0.000000       0.000000       0.000000       0.000000       0.000000    
   0.000000       0.000000       0.000000       0.000000       0.000000    
   0.000000       0.000000       0.000000       0.000000       0.000000    
   0.000000       0.000000       0.000000       0.000000       0.000000    
   0.000000       0.000000       0.000000       0.000000       0.000000    
   0.000000       0.000000       0.000000       0.000000       0.000000    
   0.000000       0.000000       0.000000       0.000000       0.000000    
   0.000000       0.000000       0.000000       0.000000       0.000000    
   0.000000       0.000000       0.000000       0.000000       0.000000    
   0.000000       0.000000       0.000000       0.000000       0.000000    
   0.000000       0.000000       0.000000       0.000000       0.000000    
   0.000000       0.000000       0.000000       0.000000       0.000000    
   0.000000       0.000000       0.000000       0.000000       0.000000    
   0.000000       0.000000       0.000000       0.000000       0.000000    
   0.000000       0.000000       0.000000       0.000000       0.000000    
   0.000000       0.000000       0.000000       0.000000       0.000000    
   0.000000       0.000000       0.000000       0.000000       0.000000    
   0.000000       0.000000       0.000000       0.000000       0.000000    
   0.000000       0.000000       0.000000       0.000000       0.000000    
   0.000000       0.000000       0.000000       0.000000       0.000000    
   0.000000       0.000000       0.000000       0.000000       0.000000    
   0.000000       0.000000       0.000000       0.000000       0.000000    
   0.000000       0.000000       0.000000       0.000000       0.000000    
   0.000000       0.000000       0.000000       0.000000       0.000000    
   0.000000       0.000000       0.000000       0.000000       0.000000    
   0.000000       0.000000       0.000000       0.000000       0.000000    
   0.000000       0.000000       0.000000       0.000000       0.000000    
   0.000000       0.000000       0.000000       0.000000       0.000000    
   0.000000       0.000000       0.000000       0.000000       0.000000    
   0.000000       0.000000       0.000000       0.000000       0.000000    
   0.000000       0.000000       0.000000       0.000000       0.000000    
   0.000000       0.000000       0.000000       0.000000       0.000000    
   0.000000       0.000000       0.000000       0.000000       0.000000    
   0.000000       0.000000       0.000000       0.000000       0.000000    
   0.000000       0.000000       0.000000       0.000000       0.000000    
   0.000000       0.000000       0.000000       0.000000       0.000000    
   0.000000       0.000000       0.000000       0.000000       0.000000    
   0.000000       0.000000       0.000000       0.000000       0.000000    
   0.000000       0.000000       0.000000       0.000000       0.000000    
   0.000000       0.000000       0.000000       0.000000       0.000000    
   0.000000       0.000000       0.000000       0.000000       0.000000    
   0.000000       0.000000       0.000000       0.000000       0.000000    
   0.000000       0.000000       0.000000       0.000000       0.000000    
   0.000000       0.000000       0.000000       0.000000       0.000000    
   0.000000       0.000000       0.000000       0.000000       0.000000    
   0.000000       0.000000       0.000000       0.000000       0.000000    
   0.000000       0.000000       0.000000       0.000000       0.000000    
   0.000000       0.000000       0.000000       0.000000       0.000000    
   0.000000       0.000000       0.000000       0.000000       0.000000    
   0.000000       0.000000       0.000000       0.000000       0.000000    
   0.000000       0.000000       0.000000       0.000000       0.000000    
   0.000000       0.000000       0.000000       0.000000       0.000000    
   0.000000       0.000000       0.000000       0.000000       0.000000    
   0.000000       0.000000       0.000000       0.000000       0.000000    
   0.000000       0.000000       0.000000       0.000000       0.000000    
   0.000000       0.000000       0.000000       0.000000       0.000000    
   0.000000       0.000000       0.000000       0.000000       0.000000    
   0.000000       0.000000       0.000000       0.000000       0.000000    
   0.000000       0.000000       0.000000       0.000000       0.000000    
   0.000000       0.000000       0.000000       0.000000       0.000000    
   0.000000       0.000000       0.000000       0.000000       0.000000    
   0.000000       0.000000       0.000000       0.000000       0.000000    
   0.000000       0.000000       0.000000       0.000000       0.000000    
   0.000000       0.000000       0.000000       0.000000       0.000000    
   0.000000       0.000000       0.000000       0.000000       0.000000    
   0.000000       0.000000       0.000000       0.000000       0.000000    
   0.000000       0.000000       0.000000       0.000000       0.000000    
   0.000000       0.000000       0.000000       0.000000       0.000000    
   0.000000       0.000000       0.000000       0.000000       0.000000    
   0.000000       0.000000       0.000000       0.000000       0.000000    
   0.000000       0.000000       0.000000       0.000000       0.000000    
   0.000000       0.000000       0.000000       0.000000       0.000000    
   0.000000       0.000000       0.000000       0.000000       0.000000    
   0.000000       0.000000       0.000000       0.000000       0.000000    
   0.000000       0.000000       0.000000       0.000000       0.000000    
   0.000000       0.000000       0.000000       0.000000       0.000000    
   0.000000       0.000000       0.000000       0.000000       0.000000    
   0.000000       0.000000       0.000000       0.000000       0.000000    
   0.000000       0.000000       0.000000       0.000000       0.000000    
   0.000000       0.000000       0.000000       0.000000       0.000000    
   0.000000       0.000000       0.000000       0.000000       0.000000    
   0.000000       0.000000       0.000000       0.000000       0.000000    
   0.000000       0.000000       0.000000       0.000000       0.000000    
   0.000000       0.000000       0.000000       0.000000       0.000000    
   0.000000       0.000000       0.000000       0.000000       0.000000    
   0.000000       0.000000       0.000000       0.000000       0.000000    
   0.000000       0.000000       0.000000       0.000000       0.000000    
   0.000000       0.000000       0.000000       0.000000       0.000000    
   0.000000       0.000000       0.000000       0.000000       0.000000    
   0.000000       0.000000       0.000000       0.000000       0.000000    
   0.000000       0.000000       0.000000       0.000000       0.000000    
   0.000000       0.000000       0.000000       0.000000       0.000000    
   0.000000       0.000000       0.000000       0.000000       0.000000    
   0.000000       0.000000       0.000000       0.000000       0.000000    
   0.000000       0.000000       0.000000       0.000000       0.000000    
   0.000000       0.000000       0.000000       0.000000       0.000000    
   0.000000       0.000000       0.000000       0.000000       0.000000    
   0.000000       0.000000       0.000000       0.000000       0.000000    
   0.000000      0.1129051E-34  0.1968718E-34 -0.1490592E-34 -0.6105632E-34
 -0.3357450E-34  0.7507661E-34  0.8881731E-34 -0.8427717E-34 -0.3514196E-33
 -0.1011496E-31 -0.3368033E-31 -0.6492209E-31 -0.9638792E-31 -0.1223598E-30
 -0.1277823E-30 -0.1332422E-30 -0.1384920E-30 -0.1359942E-30 -0.1144748E-30
 -0.9624121E-31 -0.9843011E-31 -0.1002428E-30 -0.1073070E-30 -0.8874196E-31
 -0.5101029E-31 -0.1966194E-31 -0.1008551E-31 -0.3668664E-31 -0.7870648E-31
 -0.1040371E-30 -0.1243603E-30 -0.1417034E-30 -0.1369563E-30 -0.2348724E-29
 -0.4595545E-29 -0.6853422E-29 -0.9160598E-29 -0.1146648E-28 -0.1374562E-28
 -0.1594022E-28 -0.1578075E-28 -0.1316790E-28 -0.9705063E-29 -0.7160909E-29
 -0.6744728E-29 -0.3907526E-29 -0.3984732E-29 -0.2074258E-29 -0.1561173E-29
 -0.1982837E-29 -0.4238948E-29 -0.4538976E-29 -0.1542053E-29  0.5918101E-29
  0.2077888E-28  0.4034536E-28  0.6180567E-28  0.8739425E-28  0.1161641E-27
  0.1509973E-27  0.1815954E-27  0.2110287E-27  0.2412862E-27  0.2720391E-27
  0.2989579E-27  0.3179494E-27  0.3228054E-27  0.3137103E-27  0.2929134E-27
  0.2601610E-27  0.2249933E-27  0.1836099E-27  0.1369334E-27  0.8243037E-28
  0.1879357E-28 -0.5638313E-28 -0.1353645E-27 -0.2100635E-27 -0.2786710E-27
 -0.3409182E-27 -0.3990436E-27 -0.4568599E-27 -0.5114550E-27 -0.5612850E-27
 -0.6042972E-27 -0.6391971E-27 -0.6623388E-27 -0.6665815E-27 -0.6534933E-27
 -0.6271649E-27 -0.5784332E-27 -0.5072723E-27 -0.4109245E-27 -0.2870285E-27
 -0.1355886E-27  0.4652571E-28  0.2565345E-27  0.4932817E-27  0.7559828E-27
  0.1038902E-26  0.1335598E-26  0.1637448E-26  0.1933768E-26  0.2215365E-26
  0.2472612E-26  0.2692309E-26  0.2862665E-26  0.2970712E-26  0.3003141E-26
  0.2946205E-26  0.2787155E-26  0.2517126E-26  0.2130183E-26  0.1625630E-26
  0.1006321E-26  0.2767778E-27 -0.5580417E-27 -0.1490724E-26 -0.2512152E-26
 -0.3604594E-26 -0.4742556E-26 -0.5895686E-26 -0.7030302E-26 -0.8112461E-26
 -0.9108458E-26 -0.9981715E-26 -0.1069596E-25 -0.1121130E-25 -0.1148291E-25
 -0.1146422E-25 -0.1111463E-25 -0.1039744E-25 -0.9284951E-26 -0.7760150E-26
 -0.5815813E-26 -0.3452842E-26 -0.6785571E-27  0.2488396E-26  0.6013681E-26
  0.9844510E-26  0.1390914E-25  0.1811876E-25  0.2236980E-25  0.2654739E-25
  0.3052743E-25  0.3417757E-25  0.3735582E-25  0.3991231E-25  0.4169337E-25
  0.4254491E-25  0.4232011E-25  0.4088659E-25  0.3813367E-25  0.3397805E-25
  0.2836392E-25  0.2126500E-25  0.1269034E-25  0.2689714E-26 -0.8640003E-26
 -0.2115062E-25 -0.3464029E-25 -0.4885483E-25 -0.6349159E-25 -0.7820428E-25
 -0.9260673E-25 -0.1062765E-24 -0.1187610E-24 -0.1295842E-24 -0.1382555E-24
 -0.1442814E-24 -0.1471822E-24 -0.1465103E-24 -0.1418659E-24 -0.1329094E-24
 -0.1193742E-24 -0.1010813E-24 -0.7795439E-25 -0.5003548E-25 -0.1749963E-25
  0.1933313E-25  0.5999031E-25  0.1038449E-24  0.1501162E-24  0.1978734E-24
  0.2460433E-24  0.2934227E-24  0.3386943E-24  0.3804452E-24  0.4171929E-24
  0.4474176E-24  0.4696014E-24  0.4822683E-24  0.4840264E-24  0.4736101E-24
  0.4499261E-24  0.4120984E-24  0.3595153E-24  0.2918740E-24  0.2092232E-24
  0.1119981E-24  0.1049809E-26 -0.1223327E-24 -0.2564072E-24 -0.3989746E-24
 -0.5473875E-24 -0.6985699E-24 -0.8490476E-24 -0.9949932E-24 -0.1132284E-23
 -0.1256578E-23 -0.1363392E-23 -0.1448205E-23 -0.1506560E-23 -0.1534178E-23
 -0.1527089E-23 -0.1481755E-23 -0.1395206E-23 -0.1265169E-23 -0.1090198E-23
 -0.8697820E-24 -0.6044579E-24 -0.2959077E-24  0.5296571E-25  0.4379826E-24
  0.8536567E-24  0.1293193E-23  0.1748520E-23  0.2210357E-23  0.2668313E-23
  0.3111022E-23  0.3526316E-23  0.3901426E-23  0.4223223E-23  0.4478495E-23
  0.4654250E-23  0.4738053E-23  0.4718373E-23  0.4584946E-23  0.4329139E-23
  0.3944310E-23  0.3426166E-23  0.2773100E-23  0.1986497E-23  0.1071009E-23
  0.3477670E-25 -0.1110409E-23 -0.2349017E-23 -0.3661765E-23 -0.5025694E-23
 -0.6414327E-23 -0.7797929E-23 -0.9143862E-23 -0.1041704E-22 -0.1158050E-22
 -0.1259604E-22 -0.1342505E-22 -0.1402927E-22 -0.1437176E-22 -0.1441787E-22
 -0.1413625E-22 -0.1349993E-22 -0.1248731E-22 -0.1108329E-22 -0.9280197E-23
 -0.7078742E-23 -0.4488855E-23 -0.1530377E-23  0.1766403E-23  0.5360386E-23
  0.9199521E-23  0.1322089E-22  0.1735104E-22  0.2150661E-22  0.2559524E-22
  0.2951676E-22  0.3316472E-22  0.3642818E-22  0.3919381E-22  0.4134823E-22
  0.4278059E-22  0.4338539E-22  0.4306537E-22  0.4173463E-22  0.3932167E-22
  0.3577256E-22  0.3105386E-22  0.2515550E-22  0.1809328E-22  0.9911194E-23
  0.6831402E-24 -0.9485715E-23 -0.2045824E-22 -0.3206528E-22 -0.4410638E-22
 -0.5635124E-22 -0.6854204E-22 -0.8039660E-22 -0.9161249E-22 -0.1018720E-21
 -0.1108476E-21 -0.1182092E-21 -0.1236306E-21 -0.1267982E-21 -0.1274186E-21
 -0.1252282E-21 -0.1200014E-21 -0.1115602E-21 -0.9978234E-22 -0.8460992E-22
 -0.6605681E-22 -0.4421537E-22 -0.1926189E-22  0.8539316E-23  0.3883354E-22
  0.7117511E-22  0.1050290E-21  0.1397744E-21  0.1747110E-21  0.2090676E-21
  0.2420127E-21  0.2726685E-21  0.3001261E-21  0.3234638E-21  0.3417673E-21
  0.3541508E-21  0.3597806E-21  0.3578989E-21  0.3478484E-21  0.3290962E-21
  0.3012582E-21  0.2641211E-21  0.2176634E-21  0.1620731E-21  0.9776285E-22
  0.2538046E-22 -0.5418423E-22 -0.1397982E-21 -0.2300890E-21 -0.3234550E-21
 -0.4180814E-21 -0.5119629E-21 -0.6029323E-21 -0.6886962E-21 -0.7668758E-21
 -0.8350544E-21 -0.8908284E-21 -0.9318640E-21 -0.9559560E-21 -0.9610895E-21
 -0.9455019E-21 -0.9077448E-21 -0.8467438E-21 -0.7618548E-21 -0.6529150E-21
 -0.5202874E-21 -0.3648965E-21 -0.1882546E-21  0.7523626E-23  0.2197191E-21
  0.4450194E-21  0.6795455E-21  0.9188927E-21  0.1158187E-20  0.1392157E-20
  0.1615221E-20  0.1821587E-20  0.2005368E-20  0.2160703E-20  0.2281895E-20
  0.2363551E-20  0.2400723E-20  0.2389059E-20  0.2324943E-20  0.2205636E-20
  0.2029400E-20  0.1795620E-20  0.1504900E-20  0.1159139E-20  0.7615921E-21
  0.3168981E-21 -0.1689221E-21 -0.6884948E-21 -0.1233157E-20 -0.1793054E-20
 -0.2357270E-20 -0.2913991E-20 -0.3450706E-20 -0.3954425E-20 -0.4411938E-20
 -0.4810086E-20 -0.5136055E-20 -0.5377683E-20 -0.5523772E-20 -0.5564397E-20
 -0.5491217E-20 -0.5297761E-20 -0.4979699E-20 -0.4535081E-20 -0.3964539E-20
 -0.3271446E-20 -0.2462025E-20 -0.1545401E-20 -0.5335932E-21  0.5585567E-21
  0.1713524E-20  0.2911308E-20  0.4129704E-20  0.5344645E-20  0.6530600E-20
  0.7661037E-20  0.8708926E-20  0.9647288E-20  0.1044978E-19  0.1109129E-19
  0.1154855E-19  0.1180075E-19  0.1183011E-19  0.1162245E-19  0.1116767E-19
  0.1046026E-19  0.9499593E-20  0.8290291E-20  0.6842368E-20  0.5171339E-20
  0.3298187E-20  0.1249224E-20 -0.9441833E-21 -0.3245996E-20 -0.5616019E-20
 -0.8010516E-20 -0.1038295E-19 -0.1268482E-19 -0.1486653E-19 -0.1687841E-19
 -0.1867173E-19 -0.2019973E-19 -0.2141871E-19 -0.2228906E-19 -0.2277626E-19
 -0.2285185E-19 -0.2249424E-19 -0.2168950E-19 -0.2043197E-19 -0.1872470E-19
 -0.1657979E-19 -0.1401852E-19 -0.1107124E-19 -0.7777211E-20 -0.4184067E-20
 -0.3472303E-21  0.3670932E-20  0.7802102E-20  0.1197317E-19  0.1610753E-19
  0.2012649E-19  0.2395077E-19  0.2750206E-19  0.3070462E-19  0.3348685E-19
  0.3578283E-19  0.3753376E-19  0.3868935E-19  0.3920901E-19  0.3906289E-19
  0.3823272E-19  0.3671243E-19  0.3450855E-19  0.3164029E-19  0.2813945E-19
  0.2405002E-19  0.1942751E-19  0.1433805E-19  0.8857277E-20  0.3068990E-20
 -0.2936383E-20 -0.9063435E-20 -0.1521357E-19 -0.2128685E-19 -0.2718388E-19
 -0.3280768E-19 -0.3806546E-19 -0.4287040E-19 -0.4714317E-19 -0.5081333E-19
 -0.5382053E-19 -0.5611546E-19 -0.5766051E-19 -0.5843021E-19 -0.5841135E-19
 -0.5760281E-19 -0.5601520E-19 -0.5367010E-19 -0.5059919E-19 -0.4684312E-19
 -0.4245023E-19 -0.3747513E-19 -0.3197725E-19 -0.2601928E-19 -0.1966573E-19
 -0.1298149E-19 -0.6030561E-20  0.1125062E-20  0.8426298E-20  0.1581762E-19
  0.2324743E-19  0.3066815E-19  0.3803595E-19  0.4531029E-19  0.5245304E-19
  0.5942747E-19  0.6619691E-19  0.7272325E-19  0.7896539E-19  0.8487758E-19
  0.9040776E-19  0.9549603E-19  0.1000734E-18  0.1040605E-18  0.1073672E-18
  0.1098921E-18  0.1115225E-18  0.1121357E-18  0.1115999E-18  0.1097765E-18
  0.1065225E-18  0.1016942E-18  0.9515074E-19  0.8675890E-19  0.7639810E-19
  0.6396584E-19  0.4938346E-19  0.3260219E-19  0.1360908E-19 -0.7567096E-20
 -0.3085030E-19 -0.5611218E-19 -0.8316777E-19 -0.1117720E-18 -0.1416172E-18
 -0.1723325E-18 -0.2034832E-18 -0.2345736E-18 -0.2650498E-18 -0.2943054E-18
 -0.3216883E-18 -0.3465100E-18 -0.3680557E-18 -0.3855971E-18 -0.3984063E-18
 -0.4057709E-18 -0.4070104E-18 -0.4014938E-18 -0.3886576E-18 -0.3680234E-18
 -0.3392167E-18 -0.3019839E-18 -0.2562087E-18 -0.2019272E-18 -0.1393410E-18
 -0.6882819E-19  0.9048971E-20  0.9353868E-19  0.1836983E-18  0.2783968E-18
  0.3763208E-18  0.4759855E-18  0.5757490E-18  0.6738319E-18  0.7683402E-18
  0.8572927E-18  0.9386524E-18  0.1010361E-17  0.1070377E-17  0.1116714E-17
  0.1147485E-17  0.1160943E-17  0.1155525E-17  0.1129895E-17  0.1082985E-17
  0.1014034E-17  0.9226244E-18  0.8087110E-18  0.6726512E-18  0.5152238E-18
  0.3376439E-18  0.1415700E-18 -0.7089684E-19 -0.2972218E-18 -0.5344539E-18
 -0.7792522E-18 -0.1027921E-17 -0.1276455E-17 -0.1520588E-17 -0.1755854E-17
 -0.1977658E-17 -0.2181344E-17 -0.2362275E-17 -0.2515919E-17 -0.2637929E-17
 -0.2724235E-17 -0.2771130E-17 -0.2775353E-17 -0.2734174E-17 -0.2645469E-17
 -0.2507795E-17 -0.2320448E-17 -0.2083519E-17 -0.1797936E-17 -0.1465493E-17
 -0.1088870E-17 -0.6716301E-18 -0.2182111E-18  0.2661042E-18  0.7752318E-18
  0.1302346E-17  0.1839953E-17  0.2379983E-17  0.2913891E-17  0.3432775E-17
  0.3927505E-17  0.4388854E-17  0.4807651E-17  0.5174928E-17  0.5482073E-17
  0.5720987E-17  0.5884237E-17  0.5965208E-17  0.5958245E-17  0.5858786E-17
  0.5663485E-17  0.5370320E-17  0.4978685E-17  0.4489467E-17  0.3905093E-17
  0.3229567E-17  0.2468479E-17  0.1628983E-17  0.7197636E-18 -0.2490297E-18
 -0.1265873E-17 -0.2317982E-17 -0.3391443E-17 -0.4471379E-17 -0.5542122E-17
 -0.6587413E-17 -0.7590615E-17 -0.8534938E-17 -0.9403673E-17 -0.1018044E-16
 -0.1084943E-16 -0.1139567E-16 -0.1180524E-16 -0.1206554E-16 -0.1216552E-16
 -0.1209587E-16 -0.1184927E-16 -0.1142051E-16 -0.1080671E-16 -0.1000741E-16
 -0.9024709E-17 -0.7863314E-17 -0.6530614E-17 -0.5036676E-17 -0.3394226E-17
 -0.1618599E-17  0.2723618E-18  0.2258423E-17  0.4317124E-17  0.6423974E-17
  0.8552674E-17  0.1067539E-16  0.1276301E-16  0.1478551E-16  0.1671224E-16
  0.1851233E-16  0.2015503E-16  0.2161014E-16  0.2284837E-16  0.2384182E-16
  0.2456432E-16  0.2499190E-16  0.2510318E-16  0.2487977E-16  0.2430662E-16
  0.2337244E-16  0.2207000E-16  0.2039644E-16  0.1835355E-16  0.1594800E-16
  0.1319152E-16  0.1010104E-16  0.6698790E-17  0.3012281E-17 -0.9256912E-18
 -0.5077168E-17 -0.9399199E-17 -0.1384410E-16 -0.1835975E-16 -0.2289002E-16
 -0.2737522E-16 -0.3175265E-16 -0.3595726E-16 -0.3992226E-16 -0.4358000E-16
 -0.4686269E-16 -0.4970335E-16 -0.5203674E-16 -0.5380033E-16 -0.5493530E-16
 -0.5538762E-16 -0.5510903E-16 -0.5405814E-16 -0.5220141E-16 -0.4951414E-16
 -0.4598145E-16 -0.4159909E-16 -0.3637423E-16 -0.3032617E-16 -0.2348683E-16
 -0.1590121E-16 -0.7627644E-17  0.1262111E-17  0.1068301E-16  0.2053698E-16
  0.3071345E-16  0.4109012E-16  0.5153385E-16  0.6190186E-16  0.7204318E-16
  0.8180019E-16  0.9101054E-16  0.9950915E-16  0.1071304E-15  0.1137106E-15
  0.1190905E-15  0.1231178E-15  0.1256499E-15  0.1265568E-15  0.1257237E-15
  0.1230537E-15  0.1184703E-15  0.1119201E-15  0.1033752E-15  0.9283483E-16
  0.8032734E-16  0.6591178E-16  0.4967880E-16  0.3175140E-16  0.1228512E-16
 -0.8532211E-17 -0.3048124E-16 -0.5331246E-16 -0.7674800E-16 -0.1004841E-15
 -0.1241941E-15 -0.1475318E-15 -0.1701356E-15 -0.1916328E-15 -0.2116449E-15
 -0.2297926E-15 -0.2457016E-15 -0.2590085E-15 -0.2693669E-15 -0.2764537E-15
 -0.2799753E-15 -0.2796735E-15 -0.2753318E-15 -0.2667810E-15 -0.2539042E-15
 -0.2366417E-15 -0.2149953E-15 -0.1890315E-15 -0.1588843E-15 -0.1247567E-15
 -0.8692212E-16 -0.4572334E-16 -0.1571846E-17  0.4505488E-16  0.9361681E-16
  0.1435161E-15  0.1941029E-15  0.2446822E-15  0.2945217E-15  0.3428611E-15
  0.3889215E-15  0.4319162E-15  0.4710617E-15  0.5055899E-15  0.5347600E-15
  0.5578706E-15  0.5742724E-15  0.5833800E-15  0.5846841E-15  0.5777624E-15
  0.5622905E-15  0.5380510E-15  0.5049421E-15  0.4629846E-15  0.4123278E-15
  0.3532532E-15  0.2861767E-15  0.2116494E-15  0.1303557E-15  0.4310961E-16
 -0.4915081E-16 -0.1453711E-15 -0.2443900E-15 -0.3449516E-15 -0.4457184E-15
 -0.5452870E-15 -0.6422048E-15 -0.7349885E-15 -0.8221438E-15 -0.9021857E-15
 -0.9736605E-15 -0.1035167E-14 -0.1085377E-14 -0.1123061E-14 -0.1147107E-14
 -0.1156539E-14 -0.1150542E-14 -0.1128474E-14 -0.1089889E-14 -0.1034544E-14
 -0.9624181E-15 -0.8737178E-15 -0.7688855E-15 -0.6486035E-15 -0.5137944E-15
 -0.3656194E-15 -0.2054722E-15 -0.3497013E-16  0.1440580E-15  0.3295877E-15
  0.5194176E-15  0.7111915E-15  0.9024233E-15  0.1090524E-14  0.1272834E-14
  0.1446651E-14  0.1609267E-14  0.1758006E-14  0.1890253E-14  0.2003500E-14
  0.2095377E-14  0.2163691E-14  0.2206463E-14  0.2221962E-14  0.2208737E-14
  0.2165651E-14  0.2091905E-14  0.1987068E-14  0.1851094E-14  0.1684343E-14
  0.1487592E-14  0.1262043E-14  0.1009329E-14  0.7315082E-15  0.4310591E-15
  0.1108667E-15 -0.2257962E-15 -0.5752933E-15 -0.9336555E-15 -0.1296616E-14
 -0.1659654E-14 -0.2018036E-14 -0.2366873E-14 -0.2701171E-14 -0.3015896E-14
 -0.3306027E-14 -0.3566632E-14 -0.3792930E-14 -0.3980360E-14 -0.4124653E-14
 -0.4221898E-14 -0.4268608E-14 -0.4261792E-14 -0.4199010E-14 -0.4078435E-14
 -0.3898905E-14 -0.3659973E-14 -0.3361942E-14 -0.3005902E-14 -0.2593753E-14
 -0.2128216E-14 -0.1612843E-14 -0.1052004E-14 -0.4508766E-15  0.1845868E-15
  0.8476984E-15  0.1531088E-14  0.2226766E-14  0.2926200E-14  0.3620403E-14