  0.1425000      -12345.00      -12345.00      0.1000000E+10  -12345.00    
  -30.00000      -12345.00       0.000000      -12345.00      -12345.00    
  -12345.00      -12345.00      -12345.00      -12345.00      -12345.00    
  -12345.00      -12345.00      -12345.00      -12345.00      -12345.00    
  -12345.00      -12345.00      -12345.00      -12345.00      -12345.00    
  -12345.00      -12345.00      -12345.00      -12345.00      -12345.00    
  -12345.00      -27.12670      -109.3344       110.0000       0.000000    
  -13.82000      -67.25000      -12345.00       647.1000      -12345.00    
   20.00000       34.00000       500.0000      -12345.00      -12345.00    
  -12345.00      -12345.00      -12345.00      -12345.00      -12345.00    
  -12345.00      -12345.00      -12345.00      -12345.00      -12345.00    
  -12345.00      -12345.00       0.000000       90.00000      -12345.00    
  -12345.00      -12345.00      -12345.00      -12345.00      -12345.00    
  -12345.00      -12345.00      -12345.00      -12345.00      -12345.00    
      1994       160         0        33        45
       399         6    -12345    -12345     25600
    -12345    -12345    -12345    -12345    -12345
         1         6        11    -12345    -12345
    -12345    -12345        40    -12345    -12345
    -12345    -12345    -12345    -12345    -12345
    -12345    -12345    -12345    -12345    -12345
         1         1         1         1    -12345
RPN     060994A         
S3      -12345  -12345  
-12345  -12345  -12345  
-12345  -12345  -12345  
-12345  -12345  -12345  
-12345  -12345  SY      
SEM7.0.0Horse   MXN     
II      -12345  -12345  
   0.000000       0.000000       0.000000       0.000000       0.000000    
   0.000000       0.000000       0.000000       0.000000       0.000000    
   0.000000       0.000000       0.000000       0.000000       0.000000    
   0.000000       0.000000       0.000000       0.000000       0.000000    
   0.000000       0.000000       0.000000       0.000000       0.000000    
   0.000000       0.000000       0.000000       0.000000       0.000000    
   0.000000       0.000000       0.000000       0.000000       0.000000    
   0.000000       0.000000       0.000000       0.000000       0.000000    
   0.000000       0.000000       0.000000       0.000000       0.000000    
   0.000000       0.000000       0.000000       0.000000       0.000000    
   0.000000       0.000000       0.000000       0.000000       0.000000    
   0.000000       0.000000       0.000000       0.000000       0.000000    
   0.000000       0.000000       0.000000       0.000000       0.000000    
   0.000000       0.000000       0.000000       0.000000       0.000000    
   0.000000       0.000000       0.000000       0.000000       0.000000    
   0.000000       0.000000       0.000000       0.000000       0.000000    
   0.000000       0.000000       0.000000       0.000000       0.000000    
   0.000000       0.000000       0.000000       0.000000       0.000000    
   0.000000       0.000000       0.000000       0.000000       0.000000    
   0.000000       0.000000       0.000000       0.000000       0.000000    
   0.000000       0.000000       0.000000       0.000000       0.000000    
   0.000000       0.000000       0.000000       0.000000       0.000000    
   0.000000       0.000000       0.000000       0.000000       0.000000    
   0.000000       0.000000       0.000000       0.000000       0.000000    
   0.000000       0.000000       0.000000       0.000000       0.000000    
   0.000000       0.000000       0.000000       0.000000       0.000000    
   0.000000       0.000000       0.000000       0.000000       0.000000    
   0.000000       0.000000       0.000000       0.000000       0.000000    
   0.000000       0.000000       0.000000       0.000000       0.000000    
   0.000000       0.000000       0.000000       0.000000       0.000000    
   0.000000       0.000000       0.000000       0.000000       0.000000    
   0.000000       0.000000       0.000000       0.000000       0.000000    
   0.000000       0.000000       0.000000       0.000000       0.000000    
   0.000000       0.000000       0.000000       0.000000       0.000000    
   0.000000       0.000000       0.000000       0.000000       0.000000    
   0.000000       0.000000       0.000000       0.000000       0.000000    
   0.000000       0.000000       0.000000       0.000000       0.000000    
   0.000000       0.000000       0.000000       0.000000       0.000000    
   0.000000       0.000000       0.000000       0.000000       0.000000    
   0.000000       0.000000       0.000000       0.000000       0.000000    
   0.000000       0.000000       0.000000       0.000000       0.000000    
   0.000000       0.000000       0.000000       0.000000       0.000000    
   0.000000       0.000000       0.000000       0.000000       0.000000    
   0.000000       0.000000       0.000000       0.000000       0.000000    
   0.000000       0.000000       0.000000       0.000000       0.000000    
   0.000000       0.000000       0.000000       0.000000       0.000000    
   0.000000       0.000000       0.000000       0.000000       0.000000    
   0.000000       0.000000       0.000000       0.000000       0.000000    
   0.000000       0.000000       0.000000       0.000000       0.000000    
   0.000000       0.000000       0.000000       0.000000       0.000000    
   0.000000       0.000000       0.000000       0.000000       0.000000    
   0.000000       0.000000       0.000000       0.000000       0.000000    
   0.000000       0.000000       0.000000       0.000000       0.000000    
   0.000000       0.000000       0.000000       0.000000       0.000000    
   0.000000       0.000000       0.000000       0.000000       0.000000    
   0.000000       0.000000       0.000000       0.000000       0.000000    
   0.000000       0.000000       0.000000       0.000000       0.000000    
   0.000000       0.000000       0.000000       0.000000       0.000000    
   0.000000       0.000000       0.000000       0.000000       0.000000    
   0.000000       0.000000       0.000000       0.000000       0.000000    
   0.000000       0.000000       0.000000       0.000000       0.000000    
   0.000000       0.000000       0.000000       0.000000       0.000000    
   0.000000       0.000000       0.000000       0.000000       0.000000    
   0.000000       0.000000       0.000000       0.000000       0.000000    
   0.000000       0.000000       0.000000       0.000000       0.000000    
   0.000000       0.000000       0.000000       0.000000       0.000000    
   0.000000       0.000000       0.000000       0.000000       0.000000    
   0.000000       0.000000       0.000000       0.000000       0.000000    
   0.000000       0.000000       0.000000       0.000000       0.000000    
   0.000000       0.000000       0.000000       0.000000       0.000000    
   0.000000       0.000000       0.000000       0.000000       0.000000    
   0.000000       0.000000       0.000000       0.000000       0.000000    
   0.000000       0.000000       0.000000       0.000000       0.000000    
   0.000000       0.000000       0.000000       0.000000       0.000000    
   0.000000       0.000000       0.000000       0.000000       0.000000    
   0.000000       0.000000       0.000000       0.000000       0.000000    
   0.000000       0.000000       0.000000       0.000000       0.000000    
   0.000000       0.000000       0.000000       0.000000       0.000000    
   0.000000       0.000000       0.000000       0.000000       0.000000    
   0.000000       0.000000       0.000000       0.000000       0.000000    
   0.000000       0.000000       0.000000       0.000000       0.000000    
   0.000000       0.000000       0.000000       0.000000       0.000000    
   0.000000       0.000000       0.000000       0.000000       0.000000    
   0.000000       0.000000       0.000000       0.000000       0.000000    
   0.000000       0.000000       0.000000       0.000000       0.000000    
   0.000000       0.000000       0.000000       0.000000       0.000000    
   0.000000       0.000000       0.000000       0.000000       0.000000    
   0.000000       0.000000       0.000000       0.000000       0.000000    
   0.000000       0.000000       0.000000       0.000000       0.000000    
   0.000000       0.000000       0.000000       0.000000       0.000000    
   0.000000       0.000000       0.000000       0.000000       0.000000    
   0.000000       0.000000       0.000000       0.000000       0.000000    
   0.000000       0.000000       0.000000       0.000000       0.000000    
   0.000000       0.000000       0.000000       0.000000       0.000000    
   0.000000       0.000000       0.000000       0.000000       0.000000    
   0.000000       0.000000       0.000000       0.000000       0.000000    
   0.000000       0.000000       0.000000       0.000000       0.000000    
   0.000000       0.000000       0.000000       0.000000       0.000000    
   0.000000       0.000000       0.000000       0.000000       0.000000    
   0.000000       0.000000       0.000000       0.000000       0.000000    
   0.000000       0.000000       0.000000       0.000000       0.000000    
   0.000000       0.000000       0.000000       0.000000       0.000000    
   0.000000       0.000000       0.000000       0.000000       0.000000    
   0.000000       0.000000       0.000000       0.000000       0.000000    
   0.000000       0.000000       0.000000       0.000000       0.000000    
   0.000000       0.000000       0.000000       0.000000       0.000000    
   0.000000       0.000000       0.000000       0.000000       0.000000    
   0.000000       0.000000       0.000000       0.000000       0.000000    
   0.000000       0.000000       0.000000       0.000000       0.000000    
   0.000000       0.000000       0.000000       0.000000       0.000000    
   0.000000       0.000000       0.000000       0.000000       0.000000    
   0.000000       0.000000       0.000000       0.000000       0.000000    
   0.000000       0.000000       0.000000       0.000000       0.000000    
   0.000000       0.000000       0.000000       0.000000       0.000000    
   0.000000       0.000000       0.000000       0.000000       0.000000    
   0.000000       0.000000       0.000000       0.000000       0.000000    
   0.000000       0.000000       0.000000       0.000000       0.000000    
   0.000000       0.000000       0.000000       0.000000       0.000000    
   0.000000       0.000000       0.000000       0.000000       0.000000    
   0.000000       0.000000       0.000000       0.000000       0.000000    
   0.000000       0.000000       0.000000       0.000000       0.000000    
   0.000000       0.000000       0.000000       0.000000       0.000000    
   0.000000       0.000000       0.000000       0.000000       0.000000    
   0.000000       0.000000       0.000000       0.000000       0.000000    
   0.000000       0.000000       0.000000       0.000000       0.000000    
   0.000000       0.000000       0.000000       0.000000       0.000000    
   0.000000       0.000000       0.000000       0.000000       0.000000    
   0.000000       0.000000       0.000000       0.000000       0.000000    
   0.000000       0.000000       0.000000       0.000000       0.000000    
   0.000000       0.000000       0.000000       0.000000       0.000000    
   0.000000       0.000000       0.000000       0.000000       0.000000    
   0.000000       0.000000       0.000000       0.000000       0.000000    
   0.000000       0.000000       0.000000       0.000000       0.000000    
   0.000000       0.000000       0.000000       0.000000       0.000000    
   0.000000       0.000000       0.000000       0.000000       0.000000    
   0.000000       0.000000       0.000000       0.000000       0.000000    
   0.000000       0.000000       0.000000       0.000000       0.000000    
   0.000000       0.000000       0.000000       0.000000       0.000000    
   0.000000       0.000000       0.000000       0.000000       0.000000    
   0.000000       0.000000       0.000000       0.000000       0.000000    
   0.000000       0.000000       0.000000       0.000000       0.000000    
   0.000000       0.000000       0.000000       0.000000       0.000000    
   0.000000       0.000000       0.000000       0.000000       0.000000    
   0.000000       0.000000       0.000000       0.000000       0.000000    
   0.000000       0.000000       0.000000       0.000000       0.000000    
   0.000000       0.000000       0.000000       0.000000       0.000000    
   0.000000       0.000000       0.000000       0.000000       0.000000    
   0.000000       0.000000       0.000000       0.000000       0.000000    
   0.000000       0.000000       0.000000       0.000000       0.000000    
   0.000000       0.000000       0.000000       0.000000       0.000000    
   0.000000       0.000000       0.000000       0.000000       0.000000    
   0.000000       0.000000       0.000000       0.000000       0.000000    
   0.000000       0.000000       0.000000       0.000000       0.000000    
   0.000000       0.000000       0.000000       0.000000       0.000000    
   0.000000       0.000000       0.000000       0.000000       0.000000    
   0.000000       0.000000       0.000000       0.000000       0.000000    
   0.000000       0.000000       0.000000       0.000000       0.000000    
   0.000000       0.000000       0.000000       0.000000       0.000000    
   0.000000       0.000000       0.000000       0.000000       0.000000    
   0.000000       0.000000       0.000000       0.000000       0.000000    
   0.000000       0.000000       0.000000       0.000000       0.000000    
   0.000000       0.000000       0.000000       0.000000       0.000000    
   0.000000       0.000000       0.000000       0.000000       0.000000    
   0.000000       0.000000       0.000000       0.000000       0.000000    
   0.000000       0.000000       0.000000       0.000000       0.000000    
   0.000000       0.000000       0.000000       0.000000       0.000000    
   0.000000       0.000000       0.000000       0.000000       0.000000    
   0.000000       0.000000       0.000000       0.000000       0.000000    
   0.000000       0.000000       0.000000       0.000000       0.000000    
   0.000000       0.000000       0.000000       0.000000       0.000000    
   0.000000       0.000000       0.000000       0.000000       0.000000    
   0.000000       0.000000       0.000000       0.000000       0.000000    
   0.000000       0.000000       0.000000       0.000000       0.000000    
   0.000000       0.000000       0.000000       0.000000       0.000000    
   0.000000       0.000000       0.000000       0.000000       0.000000    
   0.000000       0.000000       0.000000       0.000000       0.000000    
   0.000000       0.000000       0.000000       0.000000       0.000000    
   0.000000       0.000000       0.000000       0.000000       0.000000    
   0.000000       0.000000       0.000000       0.000000       0.000000    
   0.000000       0.000000       0.000000       0.000000       0.000000    
   0.000000       0.000000       0.000000       0.000000       0.000000    
   0.000000       0.000000       0.000000       0.000000       0.000000    
   0.000000       0.000000       0.000000       0.000000       0.000000    
   0.000000       0.000000       0.000000       0.000000       0.000000    
   0.000000       0.000000       0.000000       0.000000       0.000000    
   0.000000       0.000000       0.000000       0.000000       0.000000    
   0.000000       0.000000       0.000000       0.000000       0.000000    
   0.000000       0.000000       0.000000       0.000000       0.000000    
   0.000000       0.000000       0.000000       0.000000       0.000000    
   0.000000       0.000000       0.000000       0.000000       0.000000    
   0.000000       0.000000       0.000000       0.000000       0.000000    
   0.000000       0.000000       0.000000       0.000000       0.000000    
   0.000000       0.000000       0.000000       0.000000       0.000000    
   0.000000      0.1459462E-34  0.2544854E-34 -0.1926806E-34 -0.7892415E-34
 -0.4339991E-34  0.9704742E-34  0.1148093E-33 -0.1089405E-33 -0.4542608E-33
 -0.1333758E-31 -0.2668323E-31 -0.5014670E-31 -0.7388195E-31 -0.9010869E-31
 -0.1100551E-30 -0.1299981E-30 -0.1496946E-30 -0.1591036E-30 -0.1442677E-30
 -0.1304198E-30 -0.1350873E-30 -0.1395605E-30 -0.1212523E-30 -0.9548243E-31
 -0.6551063E-31 -0.3128901E-31 -0.4375292E-32  0.9026888E-32  0.1183931E-31
  0.3432438E-32 -0.1341639E-31 -0.2527884E-31 -0.1565714E-31  0.3222415E-30
  0.6426457E-30  0.9595878E-30  0.1261592E-29  0.1645450E-29  0.2159172E-29
  0.2786434E-29  0.6316257E-29  0.1295902E-28  0.1706771E-28  0.2000058E-28
  0.2225133E-28  0.2265134E-28  0.2494157E-28  0.2987360E-28  0.3649721E-28
  0.4084296E-28  0.4416441E-28  0.4450505E-28  0.4204676E-28  0.4075115E-28
  0.4316612E-28  0.4733137E-28  0.5107859E-28  0.5946236E-28  0.6406189E-28
  0.6518482E-28  0.6159067E-28  0.5716309E-28  0.4778775E-28  0.3331838E-28
  0.1985005E-28  0.1082881E-28  0.5124286E-29 -0.8438191E-30 -0.1507783E-28
 -0.3119782E-28 -0.4754702E-28 -0.5750695E-28 -0.5881242E-28 -0.4923941E-28
 -0.3627483E-28 -0.2943933E-28 -0.3415442E-28 -0.4296253E-28 -0.5091733E-28
 -0.5343203E-28 -0.5339941E-28 -0.4886393E-28 -0.4145034E-28 -0.3489154E-28
 -0.3410491E-28 -0.3828513E-28 -0.3791175E-28 -0.3176103E-28 -0.1683624E-28
  0.8828510E-29  0.3516062E-28  0.5458069E-28  0.6416535E-28  0.6780782E-28
  0.7275926E-28  0.8466927E-28  0.1047774E-27  0.1306632E-27  0.1539042E-27
  0.1687768E-27  0.1680060E-27  0.1556582E-27  0.1375876E-27  0.1176954E-27
  0.9690122E-28  0.7177938E-28  0.3825921E-28 -0.6391344E-29 -0.6333218E-28
 -0.1285095E-27 -0.1957090E-27 -0.2550473E-27 -0.3025449E-27 -0.3383811E-27
 -0.3673865E-27 -0.3939568E-27 -0.4215384E-27 -0.4483521E-27 -0.4681134E-27
 -0.4728249E-27 -0.4563863E-27 -0.4167820E-27 -0.3551021E-27 -0.2752113E-27
 -0.1761276E-27 -0.6343909E-28  0.6639072E-28  0.2200888E-27  0.4029243E-27
  0.6127288E-27  0.8398230E-27  0.1070420E-26  0.1289520E-26  0.1485408E-26
  0.1651790E-26  0.1788167E-26  0.1892495E-26  0.1961273E-26  0.1985286E-26
  0.1950555E-26  0.1842753E-26  0.1652193E-26  0.1377390E-26  0.1024535E-26
  0.6037364E-27  0.1231700E-27 -0.4141731E-27 -0.1010991E-26 -0.1668766E-26
 -0.2383201E-26 -0.3139894E-26 -0.3915724E-26 -0.4683087E-26 -0.5414723E-26
 -0.6088864E-26 -0.6688497E-26 -0.7202600E-26 -0.7614172E-26 -0.7897585E-26
 -0.8019365E-26 -0.7943007E-26 -0.7636976E-26 -0.7080667E-26 -0.6265871E-26
 -0.5192016E-26 -0.3859715E-26 -0.2265283E-26 -0.4050445E-27  0.1719326E-26
  0.4094200E-26  0.6689188E-26  0.9456680E-26  0.1233582E-25  0.1526055E-25
  0.1816545E-25  0.2098738E-25  0.2365837E-25  0.2610356E-25  0.2823683E-25
  0.2996170E-25  0.3117723E-25  0.3178696E-25  0.3170568E-25  0.3086005E-25
  0.2918554E-25  0.2662330E-25  0.2311998E-25  0.1863112E-25  0.1312746E-25
  0.6603398E-26 -0.9160794E-27 -0.9373126E-26 -0.1867948E-25 -0.2871971E-25
 -0.3935306E-25 -0.5041260E-25 -0.6170204E-25 -0.7299190E-25 -0.8401758E-25
 -0.9448270E-25 -0.1040669E-24 -0.1124350E-24 -0.1192435E-24 -0.1241446E-24
 -0.1267903E-24 -0.1268373E-24 -0.1239563E-24 -0.1178397E-24 -0.1082163E-24
 -0.9486549E-25 -0.7762980E-25 -0.5642463E-25 -0.3124689E-25 -0.2183118E-26
  0.3058163E-25  0.6675600E-25  0.1059315E-24  0.1475744E-24  0.1910223E-24
  0.2354865E-24  0.2800575E-24  0.3237109E-24  0.3653166E-24  0.4036505E-24
  0.4374100E-24  0.4652345E-24  0.4857306E-24  0.4975028E-24  0.4991887E-24
  0.4894967E-24  0.4672453E-24  0.4314047E-24  0.3811399E-24  0.3158550E-24
  0.2352368E-24  0.1392990E-24  0.2842399E-25 -0.9660104E-25 -0.2345565E-24
 -0.3837678E-24 -0.5420913E-24 -0.7069071E-24 -0.8751249E-24 -0.1043203E-23
 -0.1207178E-23 -0.1362712E-23 -0.1505153E-23 -0.1629610E-23 -0.1731042E-23
 -0.1804359E-23 -0.1844543E-23 -0.1846778E-23 -0.1806590E-23 -0.1719994E-23
 -0.1583648E-23 -0.1395009E-23 -0.1152481E-23 -0.8555630E-24 -0.5049803E-24
 -0.1028095E-24  0.3474191E-24  0.8406413E-24  0.1370213E-23  0.1927894E-23
  0.2503873E-23  0.3086833E-23  0.3664053E-23  0.4221561E-23  0.4744320E-23
  0.5216475E-23  0.5621641E-23  0.5943240E-23  0.6164869E-23  0.6270716E-23
  0.6245986E-23  0.6077358E-23  0.5753441E-23  0.5265249E-23  0.4606642E-23
  0.3774782E-23  0.2770526E-23  0.1598784E-23  0.2688115E-24 -0.1205574E-23
 -0.2805862E-23 -0.4508821E-23 -0.6286557E-23 -0.8106701E-23 -0.9932716E-23
 -0.1172432E-22 -0.1343804E-22 -0.1502794E-22 -0.1644638E-22 -0.1764499E-22
 -0.1857566E-22 -0.1919167E-22 -0.1944885E-22 -0.1930683E-22 -0.1873030E-22
 -0.1769024E-22 -0.1616519E-22 -0.1414237E-22 -0.1161880E-22 -0.8602191E-23
 -0.5111778E-23 -0.1178888E-23  0.3152654E-23  0.7826388E-23  0.1277333E-22
  0.1791240E-22  0.2315112E-22  0.2838663E-22  0.3350704E-22  0.3839308E-22
  0.4291997E-22  0.4695970E-22  0.5038342E-22  0.5306416E-22  0.5487968E-22
  0.5571547E-22  0.5546775E-22  0.5404663E-22  0.5137904E-22  0.4741169E-22
  0.4211378E-22  0.3547952E-22  0.2753016E-22  0.1831588E-22  0.7917001E-23
 -0.3555266E-23 -0.1595857E-22 -0.2911986E-22 -0.4283649E-22 -0.5687790E-22
 -0.7098815E-22 -0.8488897E-22 -0.9828369E-22 -0.1108616E-21 -0.1223032E-21
 -0.1322856E-21 -0.1404890E-21 -0.1466028E-21 -0.1503328E-21 -0.1514081E-21
 -0.1495880E-21 -0.1446694E-21 -0.1364935E-21 -0.1249521E-21 -0.1099940E-21
 -0.9162996E-22 -0.6993766E-22 -0.4506523E-22 -0.1723397E-22  0.1326027E-22
  0.4604689E-22  0.8068165E-22  0.1166495E-21  0.1533689E-21  0.1901970E-21
  0.2264376E-21  0.2613498E-21  0.2941583E-21  0.3240654E-21  0.3502639E-21
  0.3719518E-21  0.3883475E-21  0.3987061E-21  0.4023361E-21  0.3986167E-21
  0.3870152E-21  0.3671040E-21  0.3385768E-21  0.3012645E-21  0.2551494E-21
  0.2003781E-21  0.1372719E-21  0.6633553E-22 -0.1173741E-22 -0.9606166E-22
 -0.1855611E-21 -0.2789731E-21 -0.3748569E-21 -0.4716052E-21 -0.5674612E-21
 -0.6605387E-21 -0.7488473E-21 -0.8303210E-21 -0.9028510E-21 -0.9643227E-21
 -0.1012655E-20 -0.1045843E-20 -0.1062002E-20 -0.1059416E-20 -0.1036582E-20
 -0.9922600E-21 -0.9255165E-21 -0.8357707E-21 -0.7228348E-21 -0.5869511E-21
 -0.4288238E-21 -0.2496447E-21 -0.5111088E-22  0.1645653E-21  0.3946562E-21
  0.6359286E-21  0.8846650E-21  0.1136696E-20  0.1387445E-20  0.1631982E-20
  0.1865099E-20  0.2081379E-20  0.2275298E-20  0.2441314E-20  0.2573988E-20
  0.2668093E-20  0.2718740E-20  0.2721500E-20  0.2672536E-20  0.2568719E-20
  0.2407758E-20  0.2188306E-20  0.1910067E-20  0.1573886E-20  0.1181819E-20
  0.7371908E-21  0.2446242E-21 -0.2899512E-21 -0.8593172E-21 -0.1455014E-20
 -0.2067418E-20 -0.2685845E-20 -0.3298691E-20 -0.3893597E-20 -0.4457647E-20
 -0.4977589E-20 -0.5440077E-20 -0.5831943E-20 -0.6140473E-20 -0.6353704E-20
 -0.6460718E-20 -0.6451951E-20 -0.6319473E-20 -0.6057275E-20 -0.5661521E-20
 -0.5130781E-20 -0.4466221E-20 -0.3671761E-20 -0.2754180E-20 -0.1723170E-20
 -0.5913292E-21  0.6259037E-21  0.1910383E-20  0.3241451E-20  0.4596206E-20
  0.5949830E-20  0.7275974E-20  0.8547206E-20  0.9735514E-20  0.1081284E-19
  0.1175167E-19  0.1252561E-19  0.1311001E-19  0.1348260E-19  0.1362403E-19
  0.1351848E-19  0.1315416E-19  0.1252379E-19  0.1162501E-19  0.1046067E-19
  0.9039057E-20  0.7374012E-20  0.5484939E-20  0.3396672E-20  0.1139243E-20
 -0.1252491E-20 -0.3739332E-20 -0.6278342E-20 -0.8823566E-20 -0.1132685E-19
 -0.1373873E-19 -0.1600943E-19 -0.1808986E-19 -0.1993269E-19 -0.2149340E-19
 -0.2273134E-19 -0.2361069E-19 -0.2410147E-19 -0.2418034E-19 -0.2383133E-19
 -0.2304647E-19 -0.2182623E-19 -0.2017976E-19 -0.1812497E-19 -0.1568845E-19
 -0.1290515E-19 -0.9817858E-20 -0.6476474E-20 -0.2937140E-20  0.7388547E-21
  0.4486286E-20  0.8237349E-20  0.1192311E-19  0.1547502E-19  0.1882645E-19
  0.2191426E-19  0.2468027E-19  0.2707267E-19  0.2904731E-19  0.3056882E-19
  0.3161150E-19  0.3216004E-19  0.3220991E-19  0.3176754E-19  0.3085018E-19
  0.2948545E-19  0.2771061E-19  0.2557155E-19  0.2312145E-19  0.2041931E-19
  0.1752819E-19  0.1451326E-19  0.1143985E-19  0.8371321E-20  0.5367028E-20
  0.2480291E-20 -0.2434920E-21 -0.2768527E-20 -0.5070048E-20 -0.7135437E-20
 -0.8964954E-20 -0.1057205E-19 -0.1198327E-19 -0.1323761E-19 -0.1438545E-19
 -0.1548695E-19 -0.1661002E-19 -0.1782780E-19 -0.1921578E-19 -0.2084859E-19
 -0.2279651E-19 -0.2512185E-19 -0.2787522E-19 -0.3109189E-19 -0.3478833E-19
 -0.3895899E-19 -0.4357352E-19 -0.4857452E-19 -0.5387594E-19 -0.5936223E-19
 -0.6488840E-19 -0.7028093E-19 -0.7533975E-19 -0.7984115E-19 -0.8354183E-19
 -0.8618388E-19 -0.8750076E-19 -0.8722414E-19 -0.8509157E-19 -0.8085469E-19
 -0.7428809E-19 -0.6519825E-19 -0.5343267E-19 -0.3888868E-19 -0.2152199E-19
 -0.1354355E-20  0.2151952E-19  0.4692652E-19  0.7461085E-19  0.1042318E-18
  0.1353630E-18  0.1674945E-18  0.2000362E-18  0.2323241E-18  0.2636291E-18
  0.2931674E-18  0.3201142E-18  0.3436189E-18  0.3628221E-18  0.3768750E-18
  0.3849597E-18  0.3863104E-18  0.3802360E-18  0.3661416E-18  0.3435504E-18
  0.3121246E-18  0.2716849E-18  0.2222274E-18  0.1639388E-18  0.9720768E-19
  0.2263280E-19 -0.5897320E-19 -0.1465840E-18 -0.2389650E-18 -0.3346831E-18
 -0.4321222E-18 -0.5295029E-18 -0.6249083E-18 -0.7163134E-18 -0.8016196E-18
 -0.8786932E-18 -0.9454066E-18 -0.9996836E-18 -0.1039544E-17 -0.1063154E-17
 -0.1068867E-17 -0.1055279E-17 -0.1021266E-17 -0.9660274E-18 -0.8891245E-18
 -0.7905111E-18 -0.6705594E-18 -0.5300799E-18 -0.3703315E-18 -0.1930248E-18
 -0.3150519E-21  0.2052134E-18  0.4205724E-18  0.6424056E-18  0.8670320E-18
  0.1090500E-17  0.1308648E-17  0.1517175E-17  0.1711714E-17  0.1887913E-17
  0.2041520E-17  0.2168472E-17  0.2264974E-17  0.2327598E-17  0.2353352E-17
  0.2339772E-17  0.2284983E-17  0.2187769E-17  0.2047624E-17  0.1864795E-17
  0.1640315E-17  0.1376015E-17  0.1074527E-17  0.7392700E-18  0.3744207E-18
 -0.1513125E-19 -0.4238440E-18 -0.8455978E-18 -0.1273784E-17 -0.1701406E-17
 -0.2121190E-17 -0.2525706E-17 -0.2907498E-17 -0.3259213E-17 -0.3573738E-17
 -0.3844334E-17 -0.4064768E-17 -0.4229437E-17 -0.4333486E-17 -0.4372919E-17
 -0.4344691E-17 -0.4246790E-17 -0.4078296E-17 -0.3839431E-17 -0.3531579E-17
 -0.3157290E-17 -0.2720271E-17 -0.2225341E-17 -0.1678377E-17 -0.1086240E-17
 -0.4566746E-18  0.2018013E-18  0.8800240E-18  0.1568326E-17  0.2256682E-17
  0.2934870E-17  0.3592629E-17  0.4219823E-17  0.4806604E-17  0.5343565E-17
  0.5821894E-17  0.6233506E-17  0.6571174E-17  0.6828636E-17  0.7000689E-17
  0.7083263E-17  0.7073479E-17  0.6969678E-17  0.6771444E-17  0.6479594E-17
  0.6096154E-17  0.5624322E-17  0.5068398E-17  0.4433718E-17  0.3726564E-17
  0.2954072E-17  0.2124120E-17  0.1245229E-17  0.3264465E-18 -0.6227655E-18
 -0.1592639E-17 -0.2573203E-17 -0.3554380E-17 -0.4526074E-17 -0.5478248E-17
 -0.6400991E-17 -0.7284579E-17 -0.8119519E-17 -0.8896591E-17 -0.9606873E-17
 -0.1024177E-16 -0.1079302E-16 -0.1125273E-16 -0.1161334E-16 -0.1186772E-16
 -0.1200910E-16 -0.1203119E-16 -0.1192816E-16 -0.1169469E-16 -0.1132608E-16
 -0.1081830E-16 -0.1016810E-16 -0.9373109E-17 -0.8432007E-17 -0.7344625E-17
 -0.6112130E-17 -0.4737189E-17 -0.3224141E-17 -0.1579173E-17  0.1895090E-18
  0.2071520E-17  0.4054147E-17  0.6122235E-17  0.8258087E-17  0.1044142E-16
  0.1264934E-16  0.1485642E-16  0.1703474E-16  0.1915409E-16  0.2118216E-16
  0.2308486E-16  0.2482665E-16  0.2637102E-16  0.2768094E-16  0.2871943E-16
  0.2945023E-16  0.2983841E-16  0.2985114E-16  0.2945840E-16  0.2863380E-16
  0.2735533E-16  0.2560614E-16  0.2337529E-16  0.2065847E-16  0.1745861E-16
  0.1378644E-16  0.9661018E-17  0.5110040E-17  0.1701086E-18 -0.5113196E-17
 -0.1068538E-16 -0.1648326E-16 -0.2243538E-16 -0.2846261E-16 -0.3447886E-16
 -0.4039206E-16 -0.4610528E-16 -0.5151800E-16 -0.5652755E-16 -0.6103068E-16
 -0.6492527E-16 -0.6811211E-16 -0.7049669E-16 -0.7199114E-16 -0.7251609E-16
 -0.7200253E-16 -0.7039360E-16 -0.6764635E-16 -0.6373321E-16 -0.5864339E-16
 -0.5238410E-16 -0.4498142E-16 -0.3648104E-16 -0.2694860E-16 -0.1646973E-16
 -0.5149866E-17  0.6886492E-17  0.1949666E-16  0.3252117E-16  0.4578545E-16
  0.5910180E-16  0.7227172E-16  0.8508854E-16  0.9734033E-16  0.1088130E-15
  0.1192937E-15  0.1285741E-15  0.1364541E-15  0.1427450E-15  0.1472736E-15
  0.1498849E-15  0.1504460E-15  0.1488491E-15  0.1450139E-15  0.1388903E-15
  0.1304606E-15  0.1197411E-15  0.1067831E-15  0.9167379E-16  0.7453641E-16
  0.5552968E-16  0.3484700E-16  0.1271480E-16 -0.1060951E-16 -0.3484032E-16
 -0.5966703E-16 -0.8475766E-16 -0.1097631E-15 -0.1343214E-15 -0.1580632E-15
 -0.1806161E-15 -0.2016110E-15 -0.2206868E-15 -0.2374966E-15 -0.2517126E-15
 -0.2630320E-15 -0.2711821E-15 -0.2759248E-15 -0.2770618E-15 -0.2744380E-15
 -0.2679460E-15 -0.2575280E-15 -0.2431791E-15 -0.2249485E-15 -0.2029405E-15
 -0.1773150E-15 -0.1482865E-15 -0.1161230E-15 -0.8114425E-16 -0.4371830E-16
 -0.4258253E-17  0.3678211E-16  0.7891332E-16  0.1216157E-15  0.1643452E-15
  0.2065401E-15  0.2476279E-15  0.2870322E-15  0.3241805E-15  0.3585114E-15
  0.3894821E-15  0.4165757E-15  0.4393088E-15  0.4572380E-15  0.4699667E-15
  0.4771515E-15  0.4785077E-15  0.4738146E-15  0.4629195E-15  0.4457418E-15
  0.4222759E-15  0.3925931E-15  0.3568432E-15  0.3152551E-15  0.2681362E-15
  0.2158712E-15  0.1589193E-15  0.9781195E-16  0.3314825E-16 -0.3440973E-16
 -0.1041424E-15 -0.1752792E-15 -0.2470053E-15 -0.3184701E-15 -0.3887955E-15
 -0.4570854E-15 -0.5224344E-15 -0.5839379E-15 -0.6407030E-15 -0.6918585E-15
 -0.7365653E-15 -0.7740280E-15 -0.8035054E-15 -0.8243212E-15 -0.8358740E-15
 -0.8376476E-15 -0.8292200E-15 -0.8102724E-15 -0.7805981E-15 -0.7401089E-15
 -0.6888419E-15 -0.6269651E-15 -0.5547805E-15 -0.4727273E-15 -0.3813828E-15
 -0.2814620E-15 -0.1738161E-15 -0.5942820E-16  0.6059155E-16  0.1850137E-15